#germanene 1.020000e+01x1.020000e+01, a=2.38, lx=15, ly=25
1500 atoms

1 atom types

0 107.1 xlo xhi
0 103.057 ylo yhi
-30 30 zlo zhi

Masses

1 28.0855

Atoms

1 1 0 0 2.598
2 1 1.19 2.06114 2.598
3 1 3.57 2.06114 2.598
4 1 4.76 0 2.598
5 1 0 4.12228 2.598
6 1 1.19 6.18342 2.598
7 1 3.57 6.18342 2.598
8 1 4.76 4.12228 2.598
9 1 0 8.24456 2.598
10 1 1.19 10.3057 2.598
11 1 3.57 10.3057 2.598
12 1 4.76 8.24456 2.598
13 1 0 12.3668 2.598
14 1 1.19 14.428 2.598
15 1 3.57 14.428 2.598
16 1 4.76 12.3668 2.598
17 1 0 16.4891 2.598
18 1 1.19 18.5503 2.598
19 1 3.57 18.5503 2.598
20 1 4.76 16.4891 2.598
21 1 0 20.6114 2.598
22 1 1.19 22.6725 2.598
23 1 3.57 22.6725 2.598
24 1 4.76 20.6114 2.598
25 1 0 24.7337 2.598
26 1 1.19 26.7948 2.598
27 1 3.57 26.7948 2.598
28 1 4.76 24.7337 2.598
29 1 0 28.856 2.598
30 1 1.19 30.9171 2.598
31 1 3.57 30.9171 2.598
32 1 4.76 28.856 2.598
33 1 0 32.9782 2.598
34 1 1.19 35.0394 2.598
35 1 3.57 35.0394 2.598
36 1 4.76 32.9782 2.598
37 1 0 37.1005 2.598
38 1 1.19 39.1617 2.598
39 1 3.57 39.1617 2.598
40 1 4.76 37.1005 2.598
41 1 0 41.2228 2.598
42 1 1.19 43.2839 2.598
43 1 3.57 43.2839 2.598
44 1 4.76 41.2228 2.598
45 1 0 45.3451 2.598
46 1 1.19 47.4062 2.598
47 1 3.57 47.4062 2.598
48 1 4.76 45.3451 2.598
49 1 0 49.4674 2.598
50 1 1.19 51.5285 2.598
51 1 3.57 51.5285 2.598
52 1 4.76 49.4674 2.598
53 1 0 53.5897 2.598
54 1 1.19 55.6508 2.598
55 1 3.57 55.6508 2.598
56 1 4.76 53.5897 2.598
57 1 0 57.7119 2.598
58 1 1.19 59.7731 2.598
59 1 3.57 59.7731 2.598
60 1 4.76 57.7119 2.598
61 1 0 61.8342 2.598
62 1 1.19 63.8954 2.598
63 1 3.57 63.8954 2.598
64 1 4.76 61.8342 2.598
65 1 0 65.9565 2.598
66 1 1.19 68.0176 2.598
67 1 3.57 68.0176 2.598
68 1 4.76 65.9565 2.598
69 1 0 70.0788 2.598
70 1 1.19 72.1399 2.598
71 1 3.57 72.1399 2.598
72 1 4.76 70.0788 2.598
73 1 0 74.2011 2.598
74 1 1.19 76.2622 2.598
75 1 3.57 76.2622 2.598
76 1 4.76 74.2011 2.598
77 1 0 78.3233 2.598
78 1 1.19 80.3845 2.598
79 1 3.57 80.3845 2.598
80 1 4.76 78.3233 2.598
81 1 0 82.4456 2.598
82 1 1.19 84.5068 2.598
83 1 3.57 84.5068 2.598
84 1 4.76 82.4456 2.598
85 1 0 86.5679 2.598
86 1 1.19 88.629 2.598
87 1 3.57 88.629 2.598
88 1 4.76 86.5679 2.598
89 1 0 90.6902 2.598
90 1 1.19 92.7513 2.598
91 1 3.57 92.7513 2.598
92 1 4.76 90.6902 2.598
93 1 0 94.8125 2.598
94 1 1.19 96.8736 2.598
95 1 3.57 96.8736 2.598
96 1 4.76 94.8125 2.598
97 1 0 98.9347 2.598
98 1 1.19 100.996 2.598
99 1 3.57 100.996 2.598
100 1 4.76 98.9347 2.598
101 1 7.14 0 2.598
102 1 8.33 2.06114 2.598
103 1 10.71 2.06114 2.598
104 1 11.9 0 2.598
105 1 7.14 4.12228 2.598
106 1 8.33 6.18342 2.598
107 1 10.71 6.18342 2.598
108 1 11.9 4.12228 2.598
109 1 7.14 8.24456 2.598
110 1 8.33 10.3057 2.598
111 1 10.71 10.3057 2.598
112 1 11.9 8.24456 2.598
113 1 7.14 12.3668 2.598
114 1 8.33 14.428 2.598
115 1 10.71 14.428 2.598
116 1 11.9 12.3668 2.598
117 1 7.14 16.4891 2.598
118 1 8.33 18.5503 2.598
119 1 10.71 18.5503 2.598
120 1 11.9 16.4891 2.598
121 1 7.14 20.6114 2.598
122 1 8.33 22.6725 2.598
123 1 10.71 22.6725 2.598
124 1 11.9 20.6114 2.598
125 1 7.14 24.7337 2.598
126 1 8.33 26.7948 2.598
127 1 10.71 26.7948 2.598
128 1 11.9 24.7337 2.598
129 1 7.14 28.856 2.598
130 1 8.33 30.9171 2.598
131 1 10.71 30.9171 2.598
132 1 11.9 28.856 2.598
133 1 7.14 32.9782 2.598
134 1 8.33 35.0394 2.598
135 1 10.71 35.0394 2.598
136 1 11.9 32.9782 2.598
137 1 7.14 37.1005 2.598
138 1 8.33 39.1617 2.598
139 1 10.71 39.1617 2.598
140 1 11.9 37.1005 2.598
141 1 7.14 41.2228 2.598
142 1 8.33 43.2839 2.598
143 1 10.71 43.2839 2.598
144 1 11.9 41.2228 2.598
145 1 7.14 45.3451 2.598
146 1 8.33 47.4062 2.598
147 1 10.71 47.4062 2.598
148 1 11.9 45.3451 2.598
149 1 7.14 49.4674 2.598
150 1 8.33 51.5285 2.598
151 1 10.71 51.5285 2.598
152 1 11.9 49.4674 2.598
153 1 7.14 53.5897 2.598
154 1 8.33 55.6508 2.598
155 1 10.71 55.6508 2.598
156 1 11.9 53.5897 2.598
157 1 7.14 57.7119 2.598
158 1 8.33 59.7731 2.598
159 1 10.71 59.7731 2.598
160 1 11.9 57.7119 2.598
161 1 7.14 61.8342 2.598
162 1 8.33 63.8954 2.598
163 1 10.71 63.8954 2.598
164 1 11.9 61.8342 2.598
165 1 7.14 65.9565 2.598
166 1 8.33 68.0176 2.598
167 1 10.71 68.0176 2.598
168 1 11.9 65.9565 2.598
169 1 7.14 70.0788 2.598
170 1 8.33 72.1399 2.598
171 1 10.71 72.1399 2.598
172 1 11.9 70.0788 2.598
173 1 7.14 74.2011 2.598
174 1 8.33 76.2622 2.598
175 1 10.71 76.2622 2.598
176 1 11.9 74.2011 2.598
177 1 7.14 78.3233 2.598
178 1 8.33 80.3845 2.598
179 1 10.71 80.3845 2.598
180 1 11.9 78.3233 2.598
181 1 7.14 82.4456 2.598
182 1 8.33 84.5068 2.598
183 1 10.71 84.5068 2.598
184 1 11.9 82.4456 2.598
185 1 7.14 86.5679 2.598
186 1 8.33 88.629 2.598
187 1 10.71 88.629 2.598
188 1 11.9 86.5679 2.598
189 1 7.14 90.6902 2.598
190 1 8.33 92.7513 2.598
191 1 10.71 92.7513 2.598
192 1 11.9 90.6902 2.598
193 1 7.14 94.8125 2.598
194 1 8.33 96.8736 2.598
195 1 10.71 96.8736 2.598
196 1 11.9 94.8125 2.598
197 1 7.14 98.9347 2.598
198 1 8.33 100.996 2.598
199 1 10.71 100.996 2.598
200 1 11.9 98.9347 2.598
201 1 14.28 0 2.598
202 1 15.47 2.06114 2.598
203 1 17.85 2.06114 2.598
204 1 19.04 0 2.598
205 1 14.28 4.12228 2.598
206 1 15.47 6.18342 2.598
207 1 17.85 6.18342 2.598
208 1 19.04 4.12228 2.598
209 1 14.28 8.24456 2.598
210 1 15.47 10.3057 2.598
211 1 17.85 10.3057 2.598
212 1 19.04 8.24456 2.598
213 1 14.28 12.3668 2.598
214 1 15.47 14.428 2.598
215 1 17.85 14.428 2.598
216 1 19.04 12.3668 2.598
217 1 14.28 16.4891 2.598
218 1 15.47 18.5503 2.598
219 1 17.85 18.5503 2.598
220 1 19.04 16.4891 2.598
221 1 14.28 20.6114 2.598
222 1 15.47 22.6725 2.598
223 1 17.85 22.6725 2.598
224 1 19.04 20.6114 2.598
225 1 14.28 24.7337 2.598
226 1 15.47 26.7948 2.598
227 1 17.85 26.7948 2.598
228 1 19.04 24.7337 2.598
229 1 14.28 28.856 2.598
230 1 15.47 30.9171 2.598
231 1 17.85 30.9171 2.598
232 1 19.04 28.856 2.598
233 1 14.28 32.9782 2.598
234 1 15.47 35.0394 2.598
235 1 17.85 35.0394 2.598
236 1 19.04 32.9782 2.598
237 1 14.28 37.1005 2.598
238 1 15.47 39.1617 2.598
239 1 17.85 39.1617 2.598
240 1 19.04 37.1005 2.598
241 1 14.28 41.2228 2.598
242 1 15.47 43.2839 2.598
243 1 17.85 43.2839 2.598
244 1 19.04 41.2228 2.598
245 1 14.28 45.3451 2.598
246 1 15.47 47.4062 2.598
247 1 17.85 47.4062 2.598
248 1 19.04 45.3451 2.598
249 1 14.28 49.4674 2.598
250 1 15.47 51.5285 2.598
251 1 17.85 51.5285 2.598
252 1 19.04 49.4674 2.598
253 1 14.28 53.5897 2.598
254 1 15.47 55.6508 2.598
255 1 17.85 55.6508 2.598
256 1 19.04 53.5897 2.598
257 1 14.28 57.7119 2.598
258 1 15.47 59.7731 2.598
259 1 17.85 59.7731 2.598
260 1 19.04 57.7119 2.598
261 1 14.28 61.8342 2.598
262 1 15.47 63.8954 2.598
263 1 17.85 63.8954 2.598
264 1 19.04 61.8342 2.598
265 1 14.28 65.9565 2.598
266 1 15.47 68.0176 2.598
267 1 17.85 68.0176 2.598
268 1 19.04 65.9565 2.598
269 1 14.28 70.0788 2.598
270 1 15.47 72.1399 2.598
271 1 17.85 72.1399 2.598
272 1 19.04 70.0788 2.598
273 1 14.28 74.2011 2.598
274 1 15.47 76.2622 2.598
275 1 17.85 76.2622 2.598
276 1 19.04 74.2011 2.598
277 1 14.28 78.3233 2.598
278 1 15.47 80.3845 2.598
279 1 17.85 80.3845 2.598
280 1 19.04 78.3233 2.598
281 1 14.28 82.4456 2.598
282 1 15.47 84.5068 2.598
283 1 17.85 84.5068 2.598
284 1 19.04 82.4456 2.598
285 1 14.28 86.5679 2.598
286 1 15.47 88.629 2.598
287 1 17.85 88.629 2.598
288 1 19.04 86.5679 2.598
289 1 14.28 90.6902 2.598
290 1 15.47 92.7513 2.598
291 1 17.85 92.7513 2.598
292 1 19.04 90.6902 2.598
293 1 14.28 94.8125 2.598
294 1 15.47 96.8736 2.598
295 1 17.85 96.8736 2.598
296 1 19.04 94.8125 2.598
297 1 14.28 98.9347 2.598
298 1 15.47 100.996 2.598
299 1 17.85 100.996 2.598
300 1 19.04 98.9347 2.598
301 1 21.42 0 2.598
302 1 22.61 2.06114 2.598
303 1 24.99 2.06114 2.598
304 1 26.18 0 2.598
305 1 21.42 4.12228 2.598
306 1 22.61 6.18342 2.598
307 1 24.99 6.18342 2.598
308 1 26.18 4.12228 2.598
309 1 21.42 8.24456 2.598
310 1 22.61 10.3057 2.598
311 1 24.99 10.3057 2.598
312 1 26.18 8.24456 2.598
313 1 21.42 12.3668 2.598
314 1 22.61 14.428 2.598
315 1 24.99 14.428 2.598
316 1 26.18 12.3668 2.598
317 1 21.42 16.4891 2.598
318 1 22.61 18.5503 2.598
319 1 24.99 18.5503 2.598
320 1 26.18 16.4891 2.598
321 1 21.42 20.6114 2.598
322 1 22.61 22.6725 2.598
323 1 24.99 22.6725 2.598
324 1 26.18 20.6114 2.598
325 1 21.42 24.7337 2.598
326 1 22.61 26.7948 2.598
327 1 24.99 26.7948 2.598
328 1 26.18 24.7337 2.598
329 1 21.42 28.856 2.598
330 1 22.61 30.9171 2.598
331 1 24.99 30.9171 2.598
332 1 26.18 28.856 2.598
333 1 21.42 32.9782 2.598
334 1 22.61 35.0394 2.598
335 1 24.99 35.0394 2.598
336 1 26.18 32.9782 2.598
337 1 21.42 37.1005 2.598
338 1 22.61 39.1617 2.598
339 1 24.99 39.1617 2.598
340 1 26.18 37.1005 2.598
341 1 21.42 41.2228 2.598
342 1 22.61 43.2839 2.598
343 1 24.99 43.2839 2.598
344 1 26.18 41.2228 2.598
345 1 21.42 45.3451 2.598
346 1 22.61 47.4062 2.598
347 1 24.99 47.4062 2.598
348 1 26.18 45.3451 2.598
349 1 21.42 49.4674 2.598
350 1 22.61 51.5285 2.598
351 1 24.99 51.5285 2.598
352 1 26.18 49.4674 2.598
353 1 21.42 53.5897 2.598
354 1 22.61 55.6508 2.598
355 1 24.99 55.6508 2.598
356 1 26.18 53.5897 2.598
357 1 21.42 57.7119 2.598
358 1 22.61 59.7731 2.598
359 1 24.99 59.7731 2.598
360 1 26.18 57.7119 2.598
361 1 21.42 61.8342 2.598
362 1 22.61 63.8954 2.598
363 1 24.99 63.8954 2.598
364 1 26.18 61.8342 2.598
365 1 21.42 65.9565 2.598
366 1 22.61 68.0176 2.598
367 1 24.99 68.0176 2.598
368 1 26.18 65.9565 2.598
369 1 21.42 70.0788 2.598
370 1 22.61 72.1399 2.598
371 1 24.99 72.1399 2.598
372 1 26.18 70.0788 2.598
373 1 21.42 74.2011 2.598
374 1 22.61 76.2622 2.598
375 1 24.99 76.2622 2.598
376 1 26.18 74.2011 2.598
377 1 21.42 78.3233 2.598
378 1 22.61 80.3845 2.598
379 1 24.99 80.3845 2.598
380 1 26.18 78.3233 2.598
381 1 21.42 82.4456 2.598
382 1 22.61 84.5068 2.598
383 1 24.99 84.5068 2.598
384 1 26.18 82.4456 2.598
385 1 21.42 86.5679 2.598
386 1 22.61 88.629 2.598
387 1 24.99 88.629 2.598
388 1 26.18 86.5679 2.598
389 1 21.42 90.6902 2.598
390 1 22.61 92.7513 2.598
391 1 24.99 92.7513 2.598
392 1 26.18 90.6902 2.598
393 1 21.42 94.8125 2.598
394 1 22.61 96.8736 2.598
395 1 24.99 96.8736 2.598
396 1 26.18 94.8125 2.598
397 1 21.42 98.9347 2.598
398 1 22.61 100.996 2.598
399 1 24.99 100.996 2.598
400 1 26.18 98.9347 2.598
401 1 28.56 0 2.598
402 1 29.75 2.06114 2.598
403 1 32.13 2.06114 2.598
404 1 33.32 0 2.598
405 1 28.56 4.12228 2.598
406 1 29.75 6.18342 2.598
407 1 32.13 6.18342 2.598
408 1 33.32 4.12228 2.598
409 1 28.56 8.24456 2.598
410 1 29.75 10.3057 2.598
411 1 32.13 10.3057 2.598
412 1 33.32 8.24456 2.598
413 1 28.56 12.3668 2.598
414 1 29.75 14.428 2.598
415 1 32.13 14.428 2.598
416 1 33.32 12.3668 2.598
417 1 28.56 16.4891 2.598
418 1 29.75 18.5503 2.598
419 1 32.13 18.5503 2.598
420 1 33.32 16.4891 2.598
421 1 28.56 20.6114 2.598
422 1 29.75 22.6725 2.598
423 1 32.13 22.6725 2.598
424 1 33.32 20.6114 2.598
425 1 28.56 24.7337 2.598
426 1 29.75 26.7948 2.598
427 1 32.13 26.7948 2.598
428 1 33.32 24.7337 2.598
429 1 28.56 28.856 2.598
430 1 29.75 30.9171 2.598
431 1 32.13 30.9171 2.598
432 1 33.32 28.856 2.598
433 1 28.56 32.9782 2.598
434 1 29.75 35.0394 2.598
435 1 32.13 35.0394 2.598
436 1 33.32 32.9782 2.598
437 1 28.56 37.1005 2.598
438 1 29.75 39.1617 2.598
439 1 32.13 39.1617 2.598
440 1 33.32 37.1005 2.598
441 1 28.56 41.2228 2.598
442 1 29.75 43.2839 2.598
443 1 32.13 43.2839 2.598
444 1 33.32 41.2228 2.598
445 1 28.56 45.3451 2.598
446 1 29.75 47.4062 2.598
447 1 32.13 47.4062 2.598
448 1 33.32 45.3451 2.598
449 1 28.56 49.4674 2.598
450 1 29.75 51.5285 2.598
451 1 32.13 51.5285 2.598
452 1 33.32 49.4674 2.598
453 1 28.56 53.5897 2.598
454 1 29.75 55.6508 2.598
455 1 32.13 55.6508 2.598
456 1 33.32 53.5897 2.598
457 1 28.56 57.7119 2.598
458 1 29.75 59.7731 2.598
459 1 32.13 59.7731 2.598
460 1 33.32 57.7119 2.598
461 1 28.56 61.8342 2.598
462 1 29.75 63.8954 2.598
463 1 32.13 63.8954 2.598
464 1 33.32 61.8342 2.598
465 1 28.56 65.9565 2.598
466 1 29.75 68.0176 2.598
467 1 32.13 68.0176 2.598
468 1 33.32 65.9565 2.598
469 1 28.56 70.0788 2.598
470 1 29.75 72.1399 2.598
471 1 32.13 72.1399 2.598
472 1 33.32 70.0788 2.598
473 1 28.56 74.2011 2.598
474 1 29.75 76.2622 2.598
475 1 32.13 76.2622 2.598
476 1 33.32 74.2011 2.598
477 1 28.56 78.3233 2.598
478 1 29.75 80.3845 2.598
479 1 32.13 80.3845 2.598
480 1 33.32 78.3233 2.598
481 1 28.56 82.4456 2.598
482 1 29.75 84.5068 2.598
483 1 32.13 84.5068 2.598
484 1 33.32 82.4456 2.598
485 1 28.56 86.5679 2.598
486 1 29.75 88.629 2.598
487 1 32.13 88.629 2.598
488 1 33.32 86.5679 2.598
489 1 28.56 90.6902 2.598
490 1 29.75 92.7513 2.598
491 1 32.13 92.7513 2.598
492 1 33.32 90.6902 2.598
493 1 28.56 94.8125 2.598
494 1 29.75 96.8736 2.598
495 1 32.13 96.8736 2.598
496 1 33.32 94.8125 2.598
497 1 28.56 98.9347 2.598
498 1 29.75 100.996 2.598
499 1 32.13 100.996 2.598
500 1 33.32 98.9347 2.598
501 1 35.7 0 2.598
502 1 36.89 2.06114 2.598
503 1 39.27 2.06114 2.598
504 1 40.46 0 2.598
505 1 35.7 4.12228 2.598
506 1 36.89 6.18342 2.598
507 1 39.27 6.18342 2.598
508 1 40.46 4.12228 2.598
509 1 35.7 8.24456 2.598
510 1 36.89 10.3057 2.598
511 1 39.27 10.3057 2.598
512 1 40.46 8.24456 2.598
513 1 35.7 12.3668 2.598
514 1 36.89 14.428 2.598
515 1 39.27 14.428 2.598
516 1 40.46 12.3668 2.598
517 1 35.7 16.4891 2.598
518 1 36.89 18.5503 2.598
519 1 39.27 18.5503 2.598
520 1 40.46 16.4891 2.598
521 1 35.7 20.6114 2.598
522 1 36.89 22.6725 2.598
523 1 39.27 22.6725 2.598
524 1 40.46 20.6114 2.598
525 1 35.7 24.7337 2.598
526 1 36.89 26.7948 2.598
527 1 39.27 26.7948 2.598
528 1 40.46 24.7337 2.598
529 1 35.7 28.856 2.598
530 1 36.89 30.9171 2.598
531 1 39.27 30.9171 2.598
532 1 40.46 28.856 2.598
533 1 35.7 32.9782 2.598
534 1 36.89 35.0394 2.598
535 1 39.27 35.0394 2.598
536 1 40.46 32.9782 2.598
537 1 35.7 37.1005 2.598
538 1 36.89 39.1617 2.598
539 1 39.27 39.1617 2.598
540 1 40.46 37.1005 2.598
541 1 35.7 41.2228 2.598
542 1 36.89 43.2839 2.598
543 1 39.27 43.2839 2.598
544 1 40.46 41.2228 2.598
545 1 35.7 45.3451 2.598
546 1 36.89 47.4062 2.598
547 1 39.27 47.4062 2.598
548 1 40.46 45.3451 2.598
549 1 35.7 49.4674 2.598
550 1 36.89 51.5285 2.598
551 1 39.27 51.5285 2.598
552 1 40.46 49.4674 2.598
553 1 35.7 53.5897 2.598
554 1 36.89 55.6508 2.598
555 1 39.27 55.6508 2.598
556 1 40.46 53.5897 2.598
557 1 35.7 57.7119 2.598
558 1 36.89 59.7731 2.598
559 1 39.27 59.7731 2.598
560 1 40.46 57.7119 2.598
561 1 35.7 61.8342 2.598
562 1 36.89 63.8954 2.598
563 1 39.27 63.8954 2.598
564 1 40.46 61.8342 2.598
565 1 35.7 65.9565 2.598
566 1 36.89 68.0176 2.598
567 1 39.27 68.0176 2.598
568 1 40.46 65.9565 2.598
569 1 35.7 70.0788 2.598
570 1 36.89 72.1399 2.598
571 1 39.27 72.1399 2.598
572 1 40.46 70.0788 2.598
573 1 35.7 74.2011 2.598
574 1 36.89 76.2622 2.598
575 1 39.27 76.2622 2.598
576 1 40.46 74.2011 2.598
577 1 35.7 78.3233 2.598
578 1 36.89 80.3845 2.598
579 1 39.27 80.3845 2.598
580 1 40.46 78.3233 2.598
581 1 35.7 82.4456 2.598
582 1 36.89 84.5068 2.598
583 1 39.27 84.5068 2.598
584 1 40.46 82.4456 2.598
585 1 35.7 86.5679 2.598
586 1 36.89 88.629 2.598
587 1 39.27 88.629 2.598
588 1 40.46 86.5679 2.598
589 1 35.7 90.6902 2.598
590 1 36.89 92.7513 2.598
591 1 39.27 92.7513 2.598
592 1 40.46 90.6902 2.598
593 1 35.7 94.8125 2.598
594 1 36.89 96.8736 2.598
595 1 39.27 96.8736 2.598
596 1 40.46 94.8125 2.598
597 1 35.7 98.9347 2.598
598 1 36.89 100.996 2.598
599 1 39.27 100.996 2.598
600 1 40.46 98.9347 2.598
601 1 42.84 0 2.598
602 1 44.03 2.06114 2.598
603 1 46.41 2.06114 2.598
604 1 47.6 0 2.598
605 1 42.84 4.12228 2.598
606 1 44.03 6.18342 2.598
607 1 46.41 6.18342 2.598
608 1 47.6 4.12228 2.598
609 1 42.84 8.24456 2.598
610 1 44.03 10.3057 2.598
611 1 46.41 10.3057 2.598
612 1 47.6 8.24456 2.598
613 1 42.84 12.3668 2.598
614 1 44.03 14.428 2.598
615 1 46.41 14.428 2.598
616 1 47.6 12.3668 2.598
617 1 42.84 16.4891 2.598
618 1 44.03 18.5503 2.598
619 1 46.41 18.5503 2.598
620 1 47.6 16.4891 2.598
621 1 42.84 20.6114 2.598
622 1 44.03 22.6725 2.598
623 1 46.41 22.6725 2.598
624 1 47.6 20.6114 2.598
625 1 42.84 24.7337 2.598
626 1 44.03 26.7948 2.598
627 1 46.41 26.7948 2.598
628 1 47.6 24.7337 2.598
629 1 42.84 28.856 2.598
630 1 44.03 30.9171 2.598
631 1 46.41 30.9171 2.598
632 1 47.6 28.856 2.598
633 1 42.84 32.9782 2.598
634 1 44.03 35.0394 2.598
635 1 46.41 35.0394 2.598
636 1 47.6 32.9782 2.598
637 1 42.84 37.1005 2.598
638 1 44.03 39.1617 2.598
639 1 46.41 39.1617 2.598
640 1 47.6 37.1005 2.598
641 1 42.84 41.2228 2.598
642 1 44.03 43.2839 2.598
643 1 46.41 43.2839 2.598
644 1 47.6 41.2228 2.598
645 1 42.84 45.3451 2.598
646 1 44.03 47.4062 2.598
647 1 46.41 47.4062 2.598
648 1 47.6 45.3451 2.598
649 1 42.84 49.4674 2.598
650 1 44.03 51.5285 2.598
651 1 46.41 51.5285 2.598
652 1 47.6 49.4674 2.598
653 1 42.84 53.5897 2.598
654 1 44.03 55.6508 2.598
655 1 46.41 55.6508 2.598
656 1 47.6 53.5897 2.598
657 1 42.84 57.7119 2.598
658 1 44.03 59.7731 2.598
659 1 46.41 59.7731 2.598
660 1 47.6 57.7119 2.598
661 1 42.84 61.8342 2.598
662 1 44.03 63.8954 2.598
663 1 46.41 63.8954 2.598
664 1 47.6 61.8342 2.598
665 1 42.84 65.9565 2.598
666 1 44.03 68.0176 2.598
667 1 46.41 68.0176 2.598
668 1 47.6 65.9565 2.598
669 1 42.84 70.0788 2.598
670 1 44.03 72.1399 2.598
671 1 46.41 72.1399 2.598
672 1 47.6 70.0788 2.598
673 1 42.84 74.2011 2.598
674 1 44.03 76.2622 2.598
675 1 46.41 76.2622 2.598
676 1 47.6 74.2011 2.598
677 1 42.84 78.3233 2.598
678 1 44.03 80.3845 2.598
679 1 46.41 80.3845 2.598
680 1 47.6 78.3233 2.598
681 1 42.84 82.4456 2.598
682 1 44.03 84.5068 2.598
683 1 46.41 84.5068 2.598
684 1 47.6 82.4456 2.598
685 1 42.84 86.5679 2.598
686 1 44.03 88.629 2.598
687 1 46.41 88.629 2.598
688 1 47.6 86.5679 2.598
689 1 42.84 90.6902 2.598
690 1 44.03 92.7513 2.598
691 1 46.41 92.7513 2.598
692 1 47.6 90.6902 2.598
693 1 42.84 94.8125 2.598
694 1 44.03 96.8736 2.598
695 1 46.41 96.8736 2.598
696 1 47.6 94.8125 2.598
697 1 42.84 98.9347 2.598
698 1 44.03 100.996 2.598
699 1 46.41 100.996 2.598
700 1 47.6 98.9347 2.598
701 1 49.98 0 2.598
702 1 51.17 2.06114 2.598
703 1 53.55 2.06114 2.598
704 1 54.74 0 2.598
705 1 49.98 4.12228 2.598
706 1 51.17 6.18342 2.598
707 1 53.55 6.18342 2.598
708 1 54.74 4.12228 2.598
709 1 49.98 8.24456 2.598
710 1 51.17 10.3057 2.598
711 1 53.55 10.3057 2.598
712 1 54.74 8.24456 2.598
713 1 49.98 12.3668 2.598
714 1 51.17 14.428 2.598
715 1 53.55 14.428 2.598
716 1 54.74 12.3668 2.598
717 1 49.98 16.4891 2.598
718 1 51.17 18.5503 2.598
719 1 53.55 18.5503 2.598
720 1 54.74 16.4891 2.598
721 1 49.98 20.6114 2.598
722 1 51.17 22.6725 2.598
723 1 53.55 22.6725 2.598
724 1 54.74 20.6114 2.598
725 1 49.98 24.7337 2.598
726 1 51.17 26.7948 2.598
727 1 53.55 26.7948 2.598
728 1 54.74 24.7337 2.598
729 1 49.98 28.856 2.598
730 1 51.17 30.9171 2.598
731 1 53.55 30.9171 2.598
732 1 54.74 28.856 2.598
733 1 49.98 32.9782 2.598
734 1 51.17 35.0394 2.598
735 1 53.55 35.0394 2.598
736 1 54.74 32.9782 2.598
737 1 49.98 37.1005 2.598
738 1 51.17 39.1617 2.598
739 1 53.55 39.1617 2.598
740 1 54.74 37.1005 2.598
741 1 49.98 41.2228 2.598
742 1 51.17 43.2839 2.598
743 1 53.55 43.2839 2.598
744 1 54.74 41.2228 2.598
745 1 49.98 45.3451 2.598
746 1 51.17 47.4062 2.598
747 1 53.55 47.4062 2.598
748 1 54.74 45.3451 2.598
749 1 49.98 49.4674 2.598
750 1 51.17 51.5285 2.598
751 1 53.55 51.5285 2.598
752 1 54.74 49.4674 2.598
753 1 49.98 53.5897 2.598
754 1 51.17 55.6508 2.598
755 1 53.55 55.6508 2.598
756 1 54.74 53.5897 2.598
757 1 49.98 57.7119 2.598
758 1 51.17 59.7731 2.598
759 1 53.55 59.7731 2.598
760 1 54.74 57.7119 2.598
761 1 49.98 61.8342 2.598
762 1 51.17 63.8954 2.598
763 1 53.55 63.8954 2.598
764 1 54.74 61.8342 2.598
765 1 49.98 65.9565 2.598
766 1 51.17 68.0176 2.598
767 1 53.55 68.0176 2.598
768 1 54.74 65.9565 2.598
769 1 49.98 70.0788 2.598
770 1 51.17 72.1399 2.598
771 1 53.55 72.1399 2.598
772 1 54.74 70.0788 2.598
773 1 49.98 74.2011 2.598
774 1 51.17 76.2622 2.598
775 1 53.55 76.2622 2.598
776 1 54.74 74.2011 2.598
777 1 49.98 78.3233 2.598
778 1 51.17 80.3845 2.598
779 1 53.55 80.3845 2.598
780 1 54.74 78.3233 2.598
781 1 49.98 82.4456 2.598
782 1 51.17 84.5068 2.598
783 1 53.55 84.5068 2.598
784 1 54.74 82.4456 2.598
785 1 49.98 86.5679 2.598
786 1 51.17 88.629 2.598
787 1 53.55 88.629 2.598
788 1 54.74 86.5679 2.598
789 1 49.98 90.6902 2.598
790 1 51.17 92.7513 2.598
791 1 53.55 92.7513 2.598
792 1 54.74 90.6902 2.598
793 1 49.98 94.8125 2.598
794 1 51.17 96.8736 2.598
795 1 53.55 96.8736 2.598
796 1 54.74 94.8125 2.598
797 1 49.98 98.9347 2.598
798 1 51.17 100.996 2.598
799 1 53.55 100.996 2.598
800 1 54.74 98.9347 2.598
801 1 57.12 0 2.598
802 1 58.31 2.06114 2.598
803 1 60.69 2.06114 2.598
804 1 61.88 0 2.598
805 1 57.12 4.12228 2.598
806 1 58.31 6.18342 2.598
807 1 60.69 6.18342 2.598
808 1 61.88 4.12228 2.598
809 1 57.12 8.24456 2.598
810 1 58.31 10.3057 2.598
811 1 60.69 10.3057 2.598
812 1 61.88 8.24456 2.598
813 1 57.12 12.3668 2.598
814 1 58.31 14.428 2.598
815 1 60.69 14.428 2.598
816 1 61.88 12.3668 2.598
817 1 57.12 16.4891 2.598
818 1 58.31 18.5503 2.598
819 1 60.69 18.5503 2.598
820 1 61.88 16.4891 2.598
821 1 57.12 20.6114 2.598
822 1 58.31 22.6725 2.598
823 1 60.69 22.6725 2.598
824 1 61.88 20.6114 2.598
825 1 57.12 24.7337 2.598
826 1 58.31 26.7948 2.598
827 1 60.69 26.7948 2.598
828 1 61.88 24.7337 2.598
829 1 57.12 28.856 2.598
830 1 58.31 30.9171 2.598
831 1 60.69 30.9171 2.598
832 1 61.88 28.856 2.598
833 1 57.12 32.9782 2.598
834 1 58.31 35.0394 2.598
835 1 60.69 35.0394 2.598
836 1 61.88 32.9782 2.598
837 1 57.12 37.1005 2.598
838 1 58.31 39.1617 2.598
839 1 60.69 39.1617 2.598
840 1 61.88 37.1005 2.598
841 1 57.12 41.2228 2.598
842 1 58.31 43.2839 2.598
843 1 60.69 43.2839 2.598
844 1 61.88 41.2228 2.598
845 1 57.12 45.3451 2.598
846 1 58.31 47.4062 2.598
847 1 60.69 47.4062 2.598
848 1 61.88 45.3451 2.598
849 1 57.12 49.4674 2.598
850 1 58.31 51.5285 2.598
851 1 60.69 51.5285 2.598
852 1 61.88 49.4674 2.598
853 1 57.12 53.5897 2.598
854 1 58.31 55.6508 2.598
855 1 60.69 55.6508 2.598
856 1 61.88 53.5897 2.598
857 1 57.12 57.7119 2.598
858 1 58.31 59.7731 2.598
859 1 60.69 59.7731 2.598
860 1 61.88 57.7119 2.598
861 1 57.12 61.8342 2.598
862 1 58.31 63.8954 2.598
863 1 60.69 63.8954 2.598
864 1 61.88 61.8342 2.598
865 1 57.12 65.9565 2.598
866 1 58.31 68.0176 2.598
867 1 60.69 68.0176 2.598
868 1 61.88 65.9565 2.598
869 1 57.12 70.0788 2.598
870 1 58.31 72.1399 2.598
871 1 60.69 72.1399 2.598
872 1 61.88 70.0788 2.598
873 1 57.12 74.2011 2.598
874 1 58.31 76.2622 2.598
875 1 60.69 76.2622 2.598
876 1 61.88 74.2011 2.598
877 1 57.12 78.3233 2.598
878 1 58.31 80.3845 2.598
879 1 60.69 80.3845 2.598
880 1 61.88 78.3233 2.598
881 1 57.12 82.4456 2.598
882 1 58.31 84.5068 2.598
883 1 60.69 84.5068 2.598
884 1 61.88 82.4456 2.598
885 1 57.12 86.5679 2.598
886 1 58.31 88.629 2.598
887 1 60.69 88.629 2.598
888 1 61.88 86.5679 2.598
889 1 57.12 90.6902 2.598
890 1 58.31 92.7513 2.598
891 1 60.69 92.7513 2.598
892 1 61.88 90.6902 2.598
893 1 57.12 94.8125 2.598
894 1 58.31 96.8736 2.598
895 1 60.69 96.8736 2.598
896 1 61.88 94.8125 2.598
897 1 57.12 98.9347 2.598
898 1 58.31 100.996 2.598
899 1 60.69 100.996 2.598
900 1 61.88 98.9347 2.598
901 1 64.26 0 2.598
902 1 65.45 2.06114 2.598
903 1 67.83 2.06114 2.598
904 1 69.02 0 2.598
905 1 64.26 4.12228 2.598
906 1 65.45 6.18342 2.598
907 1 67.83 6.18342 2.598
908 1 69.02 4.12228 2.598
909 1 64.26 8.24456 2.598
910 1 65.45 10.3057 2.598
911 1 67.83 10.3057 2.598
912 1 69.02 8.24456 2.598
913 1 64.26 12.3668 2.598
914 1 65.45 14.428 2.598
915 1 67.83 14.428 2.598
916 1 69.02 12.3668 2.598
917 1 64.26 16.4891 2.598
918 1 65.45 18.5503 2.598
919 1 67.83 18.5503 2.598
920 1 69.02 16.4891 2.598
921 1 64.26 20.6114 2.598
922 1 65.45 22.6725 2.598
923 1 67.83 22.6725 2.598
924 1 69.02 20.6114 2.598
925 1 64.26 24.7337 2.598
926 1 65.45 26.7948 2.598
927 1 67.83 26.7948 2.598
928 1 69.02 24.7337 2.598
929 1 64.26 28.856 2.598
930 1 65.45 30.9171 2.598
931 1 67.83 30.9171 2.598
932 1 69.02 28.856 2.598
933 1 64.26 32.9782 2.598
934 1 65.45 35.0394 2.598
935 1 67.83 35.0394 2.598
936 1 69.02 32.9782 2.598
937 1 64.26 37.1005 2.598
938 1 65.45 39.1617 2.598
939 1 67.83 39.1617 2.598
940 1 69.02 37.1005 2.598
941 1 64.26 41.2228 2.598
942 1 65.45 43.2839 2.598
943 1 67.83 43.2839 2.598
944 1 69.02 41.2228 2.598
945 1 64.26 45.3451 2.598
946 1 65.45 47.4062 2.598
947 1 67.83 47.4062 2.598
948 1 69.02 45.3451 2.598
949 1 64.26 49.4674 2.598
950 1 65.45 51.5285 2.598
951 1 67.83 51.5285 2.598
952 1 69.02 49.4674 2.598
953 1 64.26 53.5897 2.598
954 1 65.45 55.6508 2.598
955 1 67.83 55.6508 2.598
956 1 69.02 53.5897 2.598
957 1 64.26 57.7119 2.598
958 1 65.45 59.7731 2.598
959 1 67.83 59.7731 2.598
960 1 69.02 57.7119 2.598
961 1 64.26 61.8342 2.598
962 1 65.45 63.8954 2.598
963 1 67.83 63.8954 2.598
964 1 69.02 61.8342 2.598
965 1 64.26 65.9565 2.598
966 1 65.45 68.0176 2.598
967 1 67.83 68.0176 2.598
968 1 69.02 65.9565 2.598
969 1 64.26 70.0788 2.598
970 1 65.45 72.1399 2.598
971 1 67.83 72.1399 2.598
972 1 69.02 70.0788 2.598
973 1 64.26 74.2011 2.598
974 1 65.45 76.2622 2.598
975 1 67.83 76.2622 2.598
976 1 69.02 74.2011 2.598
977 1 64.26 78.3233 2.598
978 1 65.45 80.3845 2.598
979 1 67.83 80.3845 2.598
980 1 69.02 78.3233 2.598
981 1 64.26 82.4456 2.598
982 1 65.45 84.5068 2.598
983 1 67.83 84.5068 2.598
984 1 69.02 82.4456 2.598
985 1 64.26 86.5679 2.598
986 1 65.45 88.629 2.598
987 1 67.83 88.629 2.598
988 1 69.02 86.5679 2.598
989 1 64.26 90.6902 2.598
990 1 65.45 92.7513 2.598
991 1 67.83 92.7513 2.598
992 1 69.02 90.6902 2.598
993 1 64.26 94.8125 2.598
994 1 65.45 96.8736 2.598
995 1 67.83 96.8736 2.598
996 1 69.02 94.8125 2.598
997 1 64.26 98.9347 2.598
998 1 65.45 100.996 2.598
999 1 67.83 100.996 2.598
1000 1 69.02 98.9347 2.598
1001 1 71.4 0 2.598
1002 1 72.59 2.06114 2.598
1003 1 74.97 2.06114 2.598
1004 1 76.16 0 2.598
1005 1 71.4 4.12228 2.598
1006 1 72.59 6.18342 2.598
1007 1 74.97 6.18342 2.598
1008 1 76.16 4.12228 2.598
1009 1 71.4 8.24456 2.598
1010 1 72.59 10.3057 2.598
1011 1 74.97 10.3057 2.598
1012 1 76.16 8.24456 2.598
1013 1 71.4 12.3668 2.598
1014 1 72.59 14.428 2.598
1015 1 74.97 14.428 2.598
1016 1 76.16 12.3668 2.598
1017 1 71.4 16.4891 2.598
1018 1 72.59 18.5503 2.598
1019 1 74.97 18.5503 2.598
1020 1 76.16 16.4891 2.598
1021 1 71.4 20.6114 2.598
1022 1 72.59 22.6725 2.598
1023 1 74.97 22.6725 2.598
1024 1 76.16 20.6114 2.598
1025 1 71.4 24.7337 2.598
1026 1 72.59 26.7948 2.598
1027 1 74.97 26.7948 2.598
1028 1 76.16 24.7337 2.598
1029 1 71.4 28.856 2.598
1030 1 72.59 30.9171 2.598
1031 1 74.97 30.9171 2.598
1032 1 76.16 28.856 2.598
1033 1 71.4 32.9782 2.598
1034 1 72.59 35.0394 2.598
1035 1 74.97 35.0394 2.598
1036 1 76.16 32.9782 2.598
1037 1 71.4 37.1005 2.598
1038 1 72.59 39.1617 2.598
1039 1 74.97 39.1617 2.598
1040 1 76.16 37.1005 2.598
1041 1 71.4 41.2228 2.598
1042 1 72.59 43.2839 2.598
1043 1 74.97 43.2839 2.598
1044 1 76.16 41.2228 2.598
1045 1 71.4 45.3451 2.598
1046 1 72.59 47.4062 2.598
1047 1 74.97 47.4062 2.598
1048 1 76.16 45.3451 2.598
1049 1 71.4 49.4674 2.598
1050 1 72.59 51.5285 2.598
1051 1 74.97 51.5285 2.598
1052 1 76.16 49.4674 2.598
1053 1 71.4 53.5897 2.598
1054 1 72.59 55.6508 2.598
1055 1 74.97 55.6508 2.598
1056 1 76.16 53.5897 2.598
1057 1 71.4 57.7119 2.598
1058 1 72.59 59.7731 2.598
1059 1 74.97 59.7731 2.598
1060 1 76.16 57.7119 2.598
1061 1 71.4 61.8342 2.598
1062 1 72.59 63.8954 2.598
1063 1 74.97 63.8954 2.598
1064 1 76.16 61.8342 2.598
1065 1 71.4 65.9565 2.598
1066 1 72.59 68.0176 2.598
1067 1 74.97 68.0176 2.598
1068 1 76.16 65.9565 2.598
1069 1 71.4 70.0788 2.598
1070 1 72.59 72.1399 2.598
1071 1 74.97 72.1399 2.598
1072 1 76.16 70.0788 2.598
1073 1 71.4 74.2011 2.598
1074 1 72.59 76.2622 2.598
1075 1 74.97 76.2622 2.598
1076 1 76.16 74.2011 2.598
1077 1 71.4 78.3233 2.598
1078 1 72.59 80.3845 2.598
1079 1 74.97 80.3845 2.598
1080 1 76.16 78.3233 2.598
1081 1 71.4 82.4456 2.598
1082 1 72.59 84.5068 2.598
1083 1 74.97 84.5068 2.598
1084 1 76.16 82.4456 2.598
1085 1 71.4 86.5679 2.598
1086 1 72.59 88.629 2.598
1087 1 74.97 88.629 2.598
1088 1 76.16 86.5679 2.598
1089 1 71.4 90.6902 2.598
1090 1 72.59 92.7513 2.598
1091 1 74.97 92.7513 2.598
1092 1 76.16 90.6902 2.598
1093 1 71.4 94.8125 2.598
1094 1 72.59 96.8736 2.598
1095 1 74.97 96.8736 2.598
1096 1 76.16 94.8125 2.598
1097 1 71.4 98.9347 2.598
1098 1 72.59 100.996 2.598
1099 1 74.97 100.996 2.598
1100 1 76.16 98.9347 2.598
1101 1 78.54 0 2.598
1102 1 79.73 2.06114 2.598
1103 1 82.11 2.06114 2.598
1104 1 83.3 0 2.598
1105 1 78.54 4.12228 2.598
1106 1 79.73 6.18342 2.598
1107 1 82.11 6.18342 2.598
1108 1 83.3 4.12228 2.598
1109 1 78.54 8.24456 2.598
1110 1 79.73 10.3057 2.598
1111 1 82.11 10.3057 2.598
1112 1 83.3 8.24456 2.598
1113 1 78.54 12.3668 2.598
1114 1 79.73 14.428 2.598
1115 1 82.11 14.428 2.598
1116 1 83.3 12.3668 2.598
1117 1 78.54 16.4891 2.598
1118 1 79.73 18.5503 2.598
1119 1 82.11 18.5503 2.598
1120 1 83.3 16.4891 2.598
1121 1 78.54 20.6114 2.598
1122 1 79.73 22.6725 2.598
1123 1 82.11 22.6725 2.598
1124 1 83.3 20.6114 2.598
1125 1 78.54 24.7337 2.598
1126 1 79.73 26.7948 2.598
1127 1 82.11 26.7948 2.598
1128 1 83.3 24.7337 2.598
1129 1 78.54 28.856 2.598
1130 1 79.73 30.9171 2.598
1131 1 82.11 30.9171 2.598
1132 1 83.3 28.856 2.598
1133 1 78.54 32.9782 2.598
1134 1 79.73 35.0394 2.598
1135 1 82.11 35.0394 2.598
1136 1 83.3 32.9782 2.598
1137 1 78.54 37.1005 2.598
1138 1 79.73 39.1617 2.598
1139 1 82.11 39.1617 2.598
1140 1 83.3 37.1005 2.598
1141 1 78.54 41.2228 2.598
1142 1 79.73 43.2839 2.598
1143 1 82.11 43.2839 2.598
1144 1 83.3 41.2228 2.598
1145 1 78.54 45.3451 2.598
1146 1 79.73 47.4062 2.598
1147 1 82.11 47.4062 2.598
1148 1 83.3 45.3451 2.598
1149 1 78.54 49.4674 2.598
1150 1 79.73 51.5285 2.598
1151 1 82.11 51.5285 2.598
1152 1 83.3 49.4674 2.598
1153 1 78.54 53.5897 2.598
1154 1 79.73 55.6508 2.598
1155 1 82.11 55.6508 2.598
1156 1 83.3 53.5897 2.598
1157 1 78.54 57.7119 2.598
1158 1 79.73 59.7731 2.598
1159 1 82.11 59.7731 2.598
1160 1 83.3 57.7119 2.598
1161 1 78.54 61.8342 2.598
1162 1 79.73 63.8954 2.598
1163 1 82.11 63.8954 2.598
1164 1 83.3 61.8342 2.598
1165 1 78.54 65.9565 2.598
1166 1 79.73 68.0176 2.598