#germanene 10x10, a=2.41(2.49874), lx=15, ly=25
3000 atoms

2 atom types

0 108.45 xlo xhi
0 104.356 ylo yhi
-80 80 zlo zhi

Masses

1 28.0855
2 28.0855

Atoms

1 1 0 0 4
2 1 1.205 2.08712 3.34
3 1 3.615 2.08712 4
4 1 4.82 0 3.34
5 1 0 4.17424 4
6 1 1.205 6.26136 3.34
7 1 3.615 6.26136 4
8 1 4.82 4.17424 3.34
9 1 0 8.34848 4
10 1 1.205 10.4356 3.34
11 1 3.615 10.4356 4
12 1 4.82 8.34848 3.34
13 1 0 12.5227 4
14 1 1.205 14.6098 3.34
15 1 3.615 14.6098 4
16 1 4.82 12.5227 3.34
17 1 0 16.697 4
18 1 1.205 18.7841 3.34
19 1 3.615 18.7841 4
20 1 4.82 16.697 3.34
21 1 0 20.8712 4
22 1 1.205 22.9583 3.34
23 1 3.615 22.9583 4
24 1 4.82 20.8712 3.34
25 1 0 25.0455 4
26 1 1.205 27.1326 3.34
27 1 3.615 27.1326 4
28 1 4.82 25.0455 3.34
29 1 0 29.2197 4
30 1 1.205 31.3068 3.34
31 1 3.615 31.3068 4
32 1 4.82 29.2197 3.34
33 1 0 33.3939 4
34 1 1.205 35.4811 3.34
35 1 3.615 35.4811 4
36 1 4.82 33.3939 3.34
37 1 0 37.5682 4
38 1 1.205 39.6553 3.34
39 1 3.615 39.6553 4
40 1 4.82 37.5682 3.34
41 1 0 41.7424 4
42 1 1.205 43.8295 3.34
43 1 3.615 43.8295 4
44 1 4.82 41.7424 3.34
45 1 0 45.9167 4
46 1 1.205 48.0038 3.34
47 1 3.615 48.0038 4
48 1 4.82 45.9167 3.34
49 1 0 50.0909 4
50 1 1.205 52.178 3.34
51 1 3.615 52.178 4
52 1 4.82 50.0909 3.34
53 1 0 54.2652 4
54 1 1.205 56.3523 3.34
55 1 3.615 56.3523 4
56 1 4.82 54.2652 3.34
57 1 0 58.4394 4
58 1 1.205 60.5265 3.34
59 1 3.615 60.5265 4
60 1 4.82 58.4394 3.34
61 1 0 62.6136 4
62 1 1.205 64.7008 3.34
63 1 3.615 64.7008 4
64 1 4.82 62.6136 3.34
65 1 0 66.7879 4
66 1 1.205 68.875 3.34
67 1 3.615 68.875 4
68 1 4.82 66.7879 3.34
69 1 0 70.9621 4
70 1 1.205 73.0492 3.34
71 1 3.615 73.0492 4
72 1 4.82 70.9621 3.34
73 1 0 75.1364 4
74 1 1.205 77.2235 3.34
75 1 3.615 77.2235 4
76 1 4.82 75.1364 3.34
77 1 0 79.3106 4
78 1 1.205 81.3977 3.34
79 1 3.615 81.3977 4
80 1 4.82 79.3106 3.34
81 1 0 83.4848 4
82 1 1.205 85.572 3.34
83 1 3.615 85.572 4
84 1 4.82 83.4848 3.34
85 1 0 87.6591 4
86 1 1.205 89.7462 3.34
87 1 3.615 89.7462 4
88 1 4.82 87.6591 3.34
89 1 0 91.8333 4
90 1 1.205 93.9205 3.34
91 1 3.615 93.9205 4
92 1 4.82 91.8333 3.34
93 1 0 96.0076 4
94 1 1.205 98.0947 3.34
95 1 3.615 98.0947 4
96 1 4.82 96.0076 3.34
97 1 0 100.182 4
98 1 1.205 102.269 3.34
99 1 3.615 102.269 4
100 1 4.82 100.182 3.34
101 1 7.23 0 4
102 1 8.435 2.08712 3.34
103 1 10.845 2.08712 4
104 1 12.05 0 3.34
105 1 7.23 4.17424 4
106 1 8.435 6.26136 3.34
107 1 10.845 6.26136 4
108 1 12.05 4.17424 3.34
109 1 7.23 8.34848 4
110 1 8.435 10.4356 3.34
111 1 10.845 10.4356 4
112 1 12.05 8.34848 3.34
113 1 7.23 12.5227 4
114 1 8.435 14.6098 3.34
115 1 10.845 14.6098 4
116 1 12.05 12.5227 3.34
117 1 7.23 16.697 4
118 1 8.435 18.7841 3.34
119 1 10.845 18.7841 4
120 1 12.05 16.697 3.34
121 1 7.23 20.8712 4
122 1 8.435 22.9583 3.34
123 1 10.845 22.9583 4
124 1 12.05 20.8712 3.34
125 1 7.23 25.0455 4
126 1 8.435 27.1326 3.34
127 1 10.845 27.1326 4
128 1 12.05 25.0455 3.34
129 1 7.23 29.2197 4
130 1 8.435 31.3068 3.34
131 1 10.845 31.3068 4
132 1 12.05 29.2197 3.34
133 1 7.23 33.3939 4
134 1 8.435 35.4811 3.34
135 1 10.845 35.4811 4
136 1 12.05 33.3939 3.34
137 1 7.23 37.5682 4
138 1 8.435 39.6553 3.34
139 1 10.845 39.6553 4
140 1 12.05 37.5682 3.34
141 1 7.23 41.7424 4
142 1 8.435 43.8295 3.34
143 1 10.845 43.8295 4
144 1 12.05 41.7424 3.34
145 1 7.23 45.9167 4
146 1 8.435 48.0038 3.34
147 1 10.845 48.0038 4
148 1 12.05 45.9167 3.34
149 1 7.23 50.0909 4
150 1 8.435 52.178 3.34
151 1 10.845 52.178 4
152 1 12.05 50.0909 3.34
153 1 7.23 54.2652 4
154 1 8.435 56.3523 3.34
155 1 10.845 56.3523 4
156 1 12.05 54.2652 3.34
157 1 7.23 58.4394 4
158 1 8.435 60.5265 3.34
159 1 10.845 60.5265 4
160 1 12.05 58.4394 3.34
161 1 7.23 62.6136 4
162 1 8.435 64.7008 3.34
163 1 10.845 64.7008 4
164 1 12.05 62.6136 3.34
165 1 7.23 66.7879 4
166 1 8.435 68.875 3.34
167 1 10.845 68.875 4
168 1 12.05 66.7879 3.34
169 1 7.23 70.9621 4
170 1 8.435 73.0492 3.34
171 1 10.845 73.0492 4
172 1 12.05 70.9621 3.34
173 1 7.23 75.1364 4
174 1 8.435 77.2235 3.34
175 1 10.845 77.2235 4
176 1 12.05 75.1364 3.34
177 1 7.23 79.3106 4
178 1 8.435 81.3977 3.34
179 1 10.845 81.3977 4
180 1 12.05 79.3106 3.34
181 1 7.23 83.4848 4
182 1 8.435 85.572 3.34
183 1 10.845 85.572 4
184 1 12.05 83.4848 3.34
185 1 7.23 87.6591 4
186 1 8.435 89.7462 3.34
187 1 10.845 89.7462 4
188 1 12.05 87.6591 3.34
189 1 7.23 91.8333 4
190 1 8.435 93.9205 3.34
191 1 10.845 93.9205 4
192 1 12.05 91.8333 3.34
193 1 7.23 96.0076 4
194 1 8.435 98.0947 3.34
195 1 10.845 98.0947 4
196 1 12.05 96.0076 3.34
197 1 7.23 100.182 4
198 1 8.435 102.269 3.34
199 1 10.845 102.269 4
200 1 12.05 100.182 3.34
201 1 14.46 0 4
202 1 15.665 2.08712 3.34
203 1 18.075 2.08712 4
204 1 19.28 0 3.34
205 1 14.46 4.17424 4
206 1 15.665 6.26136 3.34
207 1 18.075 6.26136 4
208 1 19.28 4.17424 3.34
209 1 14.46 8.34848 4
210 1 15.665 10.4356 3.34
211 1 18.075 10.4356 4
212 1 19.28 8.34848 3.34
213 1 14.46 12.5227 4
214 1 15.665 14.6098 3.34
215 1 18.075 14.6098 4
216 1 19.28 12.5227 3.34
217 1 14.46 16.697 4
218 1 15.665 18.7841 3.34
219 1 18.075 18.7841 4
220 1 19.28 16.697 3.34
221 1 14.46 20.8712 4
222 1 15.665 22.9583 3.34
223 1 18.075 22.9583 4
224 1 19.28 20.8712 3.34
225 1 14.46 25.0455 4
226 1 15.665 27.1326 3.34
227 1 18.075 27.1326 4
228 1 19.28 25.0455 3.34
229 1 14.46 29.2197 4
230 1 15.665 31.3068 3.34
231 1 18.075 31.3068 4
232 1 19.28 29.2197 3.34
233 1 14.46 33.3939 4
234 1 15.665 35.4811 3.34
235 1 18.075 35.4811 4
236 1 19.28 33.3939 3.34
237 1 14.46 37.5682 4
238 1 15.665 39.6553 3.34
239 1 18.075 39.6553 4
240 1 19.28 37.5682 3.34
241 1 14.46 41.7424 4
242 1 15.665 43.8295 3.34
243 1 18.075 43.8295 4
244 1 19.28 41.7424 3.34
245 1 14.46 45.9167 4
246 1 15.665 48.0038 3.34
247 1 18.075 48.0038 4
248 1 19.28 45.9167 3.34
249 1 14.46 50.0909 4
250 1 15.665 52.178 3.34
251 1 18.075 52.178 4
252 1 19.28 50.0909 3.34
253 1 14.46 54.2652 4
254 1 15.665 56.3523 3.34
255 1 18.075 56.3523 4
256 1 19.28 54.2652 3.34
257 1 14.46 58.4394 4
258 1 15.665 60.5265 3.34
259 1 18.075 60.5265 4
260 1 19.28 58.4394 3.34
261 1 14.46 62.6136 4
262 1 15.665 64.7008 3.34
263 1 18.075 64.7008 4
264 1 19.28 62.6136 3.34
265 1 14.46 66.7879 4
266 1 15.665 68.875 3.34
267 1 18.075 68.875 4
268 1 19.28 66.7879 3.34
269 1 14.46 70.9621 4
270 1 15.665 73.0492 3.34
271 1 18.075 73.0492 4
272 1 19.28 70.9621 3.34
273 1 14.46 75.1364 4
274 1 15.665 77.2235 3.34
275 1 18.075 77.2235 4
276 1 19.28 75.1364 3.34
277 1 14.46 79.3106 4
278 1 15.665 81.3977 3.34
279 1 18.075 81.3977 4
280 1 19.28 79.3106 3.34
281 1 14.46 83.4848 4
282 1 15.665 85.572 3.34
283 1 18.075 85.572 4
284 1 19.28 83.4848 3.34
285 1 14.46 87.6591 4
286 1 15.665 89.7462 3.34
287 1 18.075 89.7462 4
288 1 19.28 87.6591 3.34
289 1 14.46 91.8333 4
290 1 15.665 93.9205 3.34
291 1 18.075 93.9205 4
292 1 19.28 91.8333 3.34
293 1 14.46 96.0076 4
294 1 15.665 98.0947 3.34
295 1 18.075 98.0947 4
296 1 19.28 96.0076 3.34
297 1 14.46 100.182 4
298 1 15.665 102.269 3.34
299 1 18.075 102.269 4
300 1 19.28 100.182 3.34
301 1 21.69 0 4
302 1 22.895 2.08712 3.34
303 1 25.305 2.08712 4
304 1 26.51 0 3.34
305 1 21.69 4.17424 4
306 1 22.895 6.26136 3.34
307 1 25.305 6.26136 4
308 1 26.51 4.17424 3.34
309 1 21.69 8.34848 4
310 1 22.895 10.4356 3.34
311 1 25.305 10.4356 4
312 1 26.51 8.34848 3.34
313 1 21.69 12.5227 4
314 1 22.895 14.6098 3.34
315 1 25.305 14.6098 4
316 1 26.51 12.5227 3.34
317 1 21.69 16.697 4
318 1 22.895 18.7841 3.34
319 1 25.305 18.7841 4
320 1 26.51 16.697 3.34
321 1 21.69 20.8712 4
322 1 22.895 22.9583 3.34
323 1 25.305 22.9583 4
324 1 26.51 20.8712 3.34
325 1 21.69 25.0455 4
326 1 22.895 27.1326 3.34
327 1 25.305 27.1326 4
328 1 26.51 25.0455 3.34
329 1 21.69 29.2197 4
330 1 22.895 31.3068 3.34
331 1 25.305 31.3068 4
332 1 26.51 29.2197 3.34
333 1 21.69 33.3939 4
334 1 22.895 35.4811 3.34
335 1 25.305 35.4811 4
336 1 26.51 33.3939 3.34
337 1 21.69 37.5682 4
338 1 22.895 39.6553 3.34
339 1 25.305 39.6553 4
340 1 26.51 37.5682 3.34
341 1 21.69 41.7424 4
342 1 22.895 43.8295 3.34
343 1 25.305 43.8295 4
344 1 26.51 41.7424 3.34
345 1 21.69 45.9167 4
346 1 22.895 48.0038 3.34
347 1 25.305 48.0038 4
348 1 26.51 45.9167 3.34
349 1 21.69 50.0909 4
350 1 22.895 52.178 3.34
351 1 25.305 52.178 4
352 1 26.51 50.0909 3.34
353 1 21.69 54.2652 4
354 1 22.895 56.3523 3.34
355 1 25.305 56.3523 4
356 1 26.51 54.2652 3.34
357 1 21.69 58.4394 4
358 1 22.895 60.5265 3.34
359 1 25.305 60.5265 4
360 1 26.51 58.4394 3.34
361 1 21.69 62.6136 4
362 1 22.895 64.7008 3.34
363 1 25.305 64.7008 4
364 1 26.51 62.6136 3.34
365 1 21.69 66.7879 4
366 1 22.895 68.875 3.34
367 1 25.305 68.875 4
368 1 26.51 66.7879 3.34
369 1 21.69 70.9621 4
370 1 22.895 73.0492 3.34
371 1 25.305 73.0492 4
372 1 26.51 70.9621 3.34
373 1 21.69 75.1364 4
374 1 22.895 77.2235 3.34
375 1 25.305 77.2235 4
376 1 26.51 75.1364 3.34
377 1 21.69 79.3106 4
378 1 22.895 81.3977 3.34
379 1 25.305 81.3977 4
380 1 26.51 79.3106 3.34
381 1 21.69 83.4848 4
382 1 22.895 85.572 3.34
383 1 25.305 85.572 4
384 1 26.51 83.4848 3.34
385 1 21.69 87.6591 4
386 1 22.895 89.7462 3.34
387 1 25.305 89.7462 4
388 1 26.51 87.6591 3.34
389 1 21.69 91.8333 4
390 1 22.895 93.9205 3.34
391 1 25.305 93.9205 4
392 1 26.51 91.8333 3.34
393 1 21.69 96.0076 4
394 1 22.895 98.0947 3.34
395 1 25.305 98.0947 4
396 1 26.51 96.0076 3.34
397 1 21.69 100.182 4
398 1 22.895 102.269 3.34
399 1 25.305 102.269 4
400 1 26.51 100.182 3.34
401 1 28.92 0 4
402 1 30.125 2.08712 3.34
403 1 32.535 2.08712 4
404 1 33.74 0 3.34
405 1 28.92 4.17424 4
406 1 30.125 6.26136 3.34
407 1 32.535 6.26136 4
408 1 33.74 4.17424 3.34
409 1 28.92 8.34848 4
410 1 30.125 10.4356 3.34
411 1 32.535 10.4356 4
412 1 33.74 8.34848 3.34
413 1 28.92 12.5227 4
414 1 30.125 14.6098 3.34
415 1 32.535 14.6098 4
416 1 33.74 12.5227 3.34
417 1 28.92 16.697 4
418 1 30.125 18.7841 3.34
419 1 32.535 18.7841 4
420 1 33.74 16.697 3.34
421 1 28.92 20.8712 4
422 1 30.125 22.9583 3.34
423 1 32.535 22.9583 4
424 1 33.74 20.8712 3.34
425 1 28.92 25.0455 4
426 1 30.125 27.1326 3.34
427 1 32.535 27.1326 4
428 1 33.74 25.0455 3.34
429 1 28.92 29.2197 4
430 1 30.125 31.3068 3.34
431 1 32.535 31.3068 4
432 1 33.74 29.2197 3.34
433 1 28.92 33.3939 4
434 1 30.125 35.4811 3.34
435 1 32.535 35.4811 4
436 1 33.74 33.3939 3.34
437 1 28.92 37.5682 4
438 1 30.125 39.6553 3.34
439 1 32.535 39.6553 4
440 1 33.74 37.5682 3.34
441 1 28.92 41.7424 4
442 1 30.125 43.8295 3.34
443 1 32.535 43.8295 4
444 1 33.74 41.7424 3.34
445 1 28.92 45.9167 4
446 1 30.125 48.0038 3.34
447 1 32.535 48.0038 4
448 1 33.74 45.9167 3.34
449 1 28.92 50.0909 4
450 1 30.125 52.178 3.34
451 1 32.535 52.178 4
452 1 33.74 50.0909 3.34
453 1 28.92 54.2652 4
454 1 30.125 56.3523 3.34
455 1 32.535 56.3523 4
456 1 33.74 54.2652 3.34
457 1 28.92 58.4394 4
458 1 30.125 60.5265 3.34
459 1 32.535 60.5265 4
460 1 33.74 58.4394 3.34
461 1 28.92 62.6136 4
462 1 30.125 64.7008 3.34
463 1 32.535 64.7008 4
464 1 33.74 62.6136 3.34
465 1 28.92 66.7879 4
466 1 30.125 68.875 3.34
467 1 32.535 68.875 4
468 1 33.74 66.7879 3.34
469 1 28.92 70.9621 4
470 1 30.125 73.0492 3.34
471 1 32.535 73.0492 4
472 1 33.74 70.9621 3.34
473 1 28.92 75.1364 4
474 1 30.125 77.2235 3.34
475 1 32.535 77.2235 4
476 1 33.74 75.1364 3.34
477 1 28.92 79.3106 4
478 1 30.125 81.3977 3.34
479 1 32.535 81.3977 4
480 1 33.74 79.3106 3.34
481 1 28.92 83.4848 4
482 1 30.125 85.572 3.34
483 1 32.535 85.572 4
484 1 33.74 83.4848 3.34
485 1 28.92 87.6591 4
486 1 30.125 89.7462 3.34
487 1 32.535 89.7462 4
488 1 33.74 87.6591 3.34
489 1 28.92 91.8333 4
490 1 30.125 93.9205 3.34
491 1 32.535 93.9205 4
492 1 33.74 91.8333 3.34
493 1 28.92 96.0076 4
494 1 30.125 98.0947 3.34
495 1 32.535 98.0947 4
496 1 33.74 96.0076 3.34
497 1 28.92 100.182 4
498 1 30.125 102.269 3.34
499 1 32.535 102.269 4
500 1 33.74 100.182 3.34
501 1 36.15 0 4
502 1 37.355 2.08712 3.34
503 1 39.765 2.08712 4
504 1 40.97 0 3.34
505 1 36.15 4.17424 4
506 1 37.355 6.26136 3.34
507 1 39.765 6.26136 4
508 1 40.97 4.17424 3.34
509 1 36.15 8.34848 4
510 1 37.355 10.4356 3.34
511 1 39.765 10.4356 4
512 1 40.97 8.34848 3.34
513 1 36.15 12.5227 4
514 1 37.355 14.6098 3.34
515 1 39.765 14.6098 4
516 1 40.97 12.5227 3.34
517 1 36.15 16.697 4
518 1 37.355 18.7841 3.34
519 1 39.765 18.7841 4
520 1 40.97 16.697 3.34
521 1 36.15 20.8712 4
522 1 37.355 22.9583 3.34
523 1 39.765 22.9583 4
524 1 40.97 20.8712 3.34
525 1 36.15 25.0455 4
526 1 37.355 27.1326 3.34
527 1 39.765 27.1326 4
528 1 40.97 25.0455 3.34
529 1 36.15 29.2197 4
530 1 37.355 31.3068 3.34
531 1 39.765 31.3068 4
532 1 40.97 29.2197 3.34
533 1 36.15 33.3939 4
534 1 37.355 35.4811 3.34
535 1 39.765 35.4811 4
536 1 40.97 33.3939 3.34
537 1 36.15 37.5682 4
538 1 37.355 39.6553 3.34
539 1 39.765 39.6553 4
540 1 40.97 37.5682 3.34
541 1 36.15 41.7424 4
542 1 37.355 43.8295 3.34
543 1 39.765 43.8295 4
544 1 40.97 41.7424 3.34
545 1 36.15 45.9167 4
546 1 37.355 48.0038 3.34
547 1 39.765 48.0038 4
548 1 40.97 45.9167 3.34
549 1 36.15 50.0909 4
550 1 37.355 52.178 3.34
551 1 39.765 52.178 4
552 1 40.97 50.0909 3.34
553 1 36.15 54.2652 4
554 1 37.355 56.3523 3.34
555 1 39.765 56.3523 4
556 1 40.97 54.2652 3.34
557 1 36.15 58.4394 4
558 1 37.355 60.5265 3.34
559 1 39.765 60.5265 4
560 1 40.97 58.4394 3.34
561 1 36.15 62.6136 4
562 1 37.355 64.7008 3.34
563 1 39.765 64.7008 4
564 1 40.97 62.6136 3.34
565 1 36.15 66.7879 4
566 1 37.355 68.875 3.34
567 1 39.765 68.875 4
568 1 40.97 66.7879 3.34
569 1 36.15 70.9621 4
570 1 37.355 73.0492 3.34
571 1 39.765 73.0492 4
572 1 40.97 70.9621 3.34
573 1 36.15 75.1364 4
574 1 37.355 77.2235 3.34
575 1 39.765 77.2235 4
576 1 40.97 75.1364 3.34
577 1 36.15 79.3106 4
578 1 37.355 81.3977 3.34
579 1 39.765 81.3977 4
580 1 40.97 79.3106 3.34
581 1 36.15 83.4848 4
582 1 37.355 85.572 3.34
583 1 39.765 85.572 4
584 1 40.97 83.4848 3.34
585 1 36.15 87.6591 4
586 1 37.355 89.7462 3.34
587 1 39.765 89.7462 4
588 1 40.97 87.6591 3.34
589 1 36.15 91.8333 4
590 1 37.355 93.9205 3.34
591 1 39.765 93.9205 4
592 1 40.97 91.8333 3.34
593 1 36.15 96.0076 4
594 1 37.355 98.0947 3.34
595 1 39.765 98.0947 4
596 1 40.97 96.0076 3.34
597 1 36.15 100.182 4
598 1 37.355 102.269 3.34
599 1 39.765 102.269 4
600 1 40.97 100.182 3.34
601 1 43.38 0 4
602 1 44.585 2.08712 3.34
603 1 46.995 2.08712 4
604 1 48.2 0 3.34
605 1 43.38 4.17424 4
606 1 44.585 6.26136 3.34
607 1 46.995 6.26136 4
608 1 48.2 4.17424 3.34
609 1 43.38 8.34848 4
610 1 44.585 10.4356 3.34
611 1 46.995 10.4356 4
612 1 48.2 8.34848 3.34
613 1 43.38 12.5227 4
614 1 44.585 14.6098 3.34
615 1 46.995 14.6098 4
616 1 48.2 12.5227 3.34
617 1 43.38 16.697 4
618 1 44.585 18.7841 3.34
619 1 46.995 18.7841 4
620 1 48.2 16.697 3.34
621 1 43.38 20.8712 4
622 1 44.585 22.9583 3.34
623 1 46.995 22.9583 4
624 1 48.2 20.8712 3.34
625 1 43.38 25.0455 4
626 1 44.585 27.1326 3.34
627 1 46.995 27.1326 4
628 1 48.2 25.0455 3.34
629 1 43.38 29.2197 4
630 1 44.585 31.3068 3.34
631 1 46.995 31.3068 4
632 1 48.2 29.2197 3.34
633 1 43.38 33.3939 4
634 1 44.585 35.4811 3.34
635 1 46.995 35.4811 4
636 1 48.2 33.3939 3.34
637 1 43.38 37.5682 4
638 1 44.585 39.6553 3.34
639 1 46.995 39.6553 4
640 1 48.2 37.5682 3.34
641 1 43.38 41.7424 4
642 1 44.585 43.8295 3.34
643 1 46.995 43.8295 4
644 1 48.2 41.7424 3.34
645 1 43.38 45.9167 4
646 1 44.585 48.0038 3.34
647 1 46.995 48.0038 4
648 1 48.2 45.9167 3.34
649 1 43.38 50.0909 4
650 1 44.585 52.178 3.34
651 1 46.995 52.178 4
652 1 48.2 50.0909 3.34
653 1 43.38 54.2652 4
654 1 44.585 56.3523 3.34
655 1 46.995 56.3523 4
656 1 48.2 54.2652 3.34
657 1 43.38 58.4394 4
658 1 44.585 60.5265 3.34
659 1 46.995 60.5265 4
660 1 48.2 58.4394 3.34
661 1 43.38 62.6136 4
662 1 44.585 64.7008 3.34
663 1 46.995 64.7008 4
664 1 48.2 62.6136 3.34
665 1 43.38 66.7879 4
666 1 44.585 68.875 3.34
667 1 46.995 68.875 4
668 1 48.2 66.7879 3.34
669 1 43.38 70.9621 4
670 1 44.585 73.0492 3.34
671 1 46.995 73.0492 4
672 1 48.2 70.9621 3.34
673 1 43.38 75.1364 4
674 1 44.585 77.2235 3.34
675 1 46.995 77.2235 4
676 1 48.2 75.1364 3.34
677 1 43.38 79.3106 4
678 1 44.585 81.3977 3.34
679 1 46.995 81.3977 4
680 1 48.2 79.3106 3.34
681 1 43.38 83.4848 4
682 1 44.585 85.572 3.34
683 1 46.995 85.572 4
684 1 48.2 83.4848 3.34
685 1 43.38 87.6591 4
686 1 44.585 89.7462 3.34
687 1 46.995 89.7462 4
688 1 48.2 87.6591 3.34
689 1 43.38 91.8333 4
690 1 44.585 93.9205 3.34
691 1 46.995 93.9205 4
692 1 48.2 91.8333 3.34
693 1 43.38 96.0076 4
694 1 44.585 98.0947 3.34
695 1 46.995 98.0947 4
696 1 48.2 96.0076 3.34
697 1 43.38 100.182 4
698 1 44.585 102.269 3.34
699 1 46.995 102.269 4
700 1 48.2 100.182 3.34
701 1 50.61 0 4
702 1 51.815 2.08712 3.34
703 1 54.225 2.08712 4
704 1 55.43 0 3.34
705 1 50.61 4.17424 4
706 1 51.815 6.26136 3.34
707 1 54.225 6.26136 4
708 1 55.43 4.17424 3.34
709 1 50.61 8.34848 4
710 1 51.815 10.4356 3.34
711 1 54.225 10.4356 4
712 1 55.43 8.34848 3.34
713 1 50.61 12.5227 4
714 1 51.815 14.6098 3.34
715 1 54.225 14.6098 4
716 1 55.43 12.5227 3.34
717 1 50.61 16.697 4
718 1 51.815 18.7841 3.34
719 1 54.225 18.7841 4
720 1 55.43 16.697 3.34
721 1 50.61 20.8712 4
722 1 51.815 22.9583 3.34
723 1 54.225 22.9583 4
724 1 55.43 20.8712 3.34
725 1 50.61 25.0455 4
726 1 51.815 27.1326 3.34
727 1 54.225 27.1326 4
728 1 55.43 25.0455 3.34
729 1 50.61 29.2197 4
730 1 51.815 31.3068 3.34
731 1 54.225 31.3068 4
732 1 55.43 29.2197 3.34
733 1 50.61 33.3939 4
734 1 51.815 35.4811 3.34
735 1 54.225 35.4811 4
736 1 55.43 33.3939 3.34
737 1 50.61 37.5682 4
738 1 51.815 39.6553 3.34
739 1 54.225 39.6553 4
740 1 55.43 37.5682 3.34
741 1 50.61 41.7424 4
742 1 51.815 43.8295 3.34
743 1 54.225 43.8295 4
744 1 55.43 41.7424 3.34
745 1 50.61 45.9167 4
746 1 51.815 48.0038 3.34
747 1 54.225 48.0038 4
748 1 55.43 45.9167 3.34
749 1 50.61 50.0909 4
750 1 51.815 52.178 3.34
751 1 54.225 52.178 4
752 1 55.43 50.0909 3.34
753 1 50.61 54.2652 4
754 1 51.815 56.3523 3.34
755 1 54.225 56.3523 4
756 1 55.43 54.2652 3.34
757 1 50.61 58.4394 4
758 1 51.815 60.5265 3.34
759 1 54.225 60.5265 4
760 1 55.43 58.4394 3.34
761 1 50.61 62.6136 4
762 1 51.815 64.7008 3.34
763 1 54.225 64.7008 4
764 1 55.43 62.6136 3.34
765 1 50.61 66.7879 4
766 1 51.815 68.875 3.34
767 1 54.225 68.875 4
768 1 55.43 66.7879 3.34
769 1 50.61 70.9621 4
770 1 51.815 73.0492 3.34
771 1 54.225 73.0492 4
772 1 55.43 70.9621 3.34
773 1 50.61 75.1364 4
774 1 51.815 77.2235 3.34
775 1 54.225 77.2235 4
776 1 55.43 75.1364 3.34
777 1 50.61 79.3106 4
778 1 51.815 81.3977 3.34
779 1 54.225 81.3977 4
780 1 55.43 79.3106 3.34
781 1 50.61 83.4848 4
782 1 51.815 85.572 3.34
783 1 54.225 85.572 4
784 1 55.43 83.4848 3.34
785 1 50.61 87.6591 4
786 1 51.815 89.7462 3.34
787 1 54.225 89.7462 4
788 1 55.43 87.6591 3.34
789 1 50.61 91.8333 4
790 1 51.815 93.9205 3.34
791 1 54.225 93.9205 4
792 1 55.43 91.8333 3.34
793 1 50.61 96.0076 4
794 1 51.815 98.0947 3.34
795 1 54.225 98.0947 4
796 1 55.43 96.0076 3.34
797 1 50.61 100.182 4
798 1 51.815 102.269 3.34
799 1 54.225 102.269 4
800 1 55.43 100.182 3.34
801 1 57.84 0 4
802 1 59.045 2.08712 3.34
803 1 61.455 2.08712 4
804 1 62.66 0 3.34
805 1 57.84 4.17424 4
806 1 59.045 6.26136 3.34
807 1 61.455 6.26136 4
808 1 62.66 4.17424 3.34
809 1 57.84 8.34848 4
810 1 59.045 10.4356 3.34
811 1 61.455 10.4356 4
812 1 62.66 8.34848 3.34
813 1 57.84 12.5227 4
814 1 59.045 14.6098 3.34
815 1 61.455 14.6098 4
816 1 62.66 12.5227 3.34
817 1 57.84 16.697 4
818 1 59.045 18.7841 3.34
819 1 61.455 18.7841 4
820 1 62.66 16.697 3.34
821 1 57.84 20.8712 4
822 1 59.045 22.9583 3.34
823 1 61.455 22.9583 4
824 1 62.66 20.8712 3.34
825 1 57.84 25.0455 4
826 1 59.045 27.1326 3.34
827 1 61.455 27.1326 4
828 1 62.66 25.0455 3.34
829 1 57.84 29.2197 4
830 1 59.045 31.3068 3.34
831 1 61.455 31.3068 4
832 1 62.66 29.2197 3.34
833 1 57.84 33.3939 4
834 1 59.045 35.4811 3.34
835 1 61.455 35.4811 4
836 1 62.66 33.3939 3.34
837 1 57.84 37.5682 4
838 1 59.045 39.6553 3.34
839 1 61.455 39.6553 4
840 1 62.66 37.5682 3.34
841 1 57.84 41.7424 4
842 1 59.045 43.8295 3.34
843 1 61.455 43.8295 4
844 1 62.66 41.7424 3.34
845 1 57.84 45.9167 4
846 1 59.045 48.0038 3.34
847 1 61.455 48.0038 4
848 1 62.66 45.9167 3.34
849 1 57.84 50.0909 4
850 1 59.045 52.178 3.34
851 1 61.455 52.178 4
852 1 62.66 50.0909 3.34
853 1 57.84 54.2652 4
854 1 59.045 56.3523 3.34
855 1 61.455 56.3523 4
856 1 62.66 54.2652 3.34
857 1 57.84 58.4394 4
858 1 59.045 60.5265 3.34
859 1 61.455 60.5265 4
860 1 62.66 58.4394 3.34
861 1 57.84 62.6136 4
862 1 59.045 64.7008 3.34
863 1 61.455 64.7008 4
864 1 62.66 62.6136 3.34
865 1 57.84 66.7879 4
866 1 59.045 68.875 3.34
867 1 61.455 68.875 4
868 1 62.66 66.7879 3.34
869 1 57.84 70.9621 4
870 1 59.045 73.0492 3.34
871 1 61.455 73.0492 4
872 1 62.66 70.9621 3.34
873 1 57.84 75.1364 4
874 1 59.045 77.2235 3.34
875 1 61.455 77.2235 4
876 1 62.66 75.1364 3.34
877 1 57.84 79.3106 4
878 1 59.045 81.3977 3.34
879 1 61.455 81.3977 4
880 1 62.66 79.3106 3.34
881 1 57.84 83.4848 4
882 1 59.045 85.572 3.34
883 1 61.455 85.572 4
884 1 62.66 83.4848 3.34
885 1 57.84 87.6591 4
886 1 59.045 89.7462 3.34
887 1 61.455 89.7462 4
888 1 62.66 87.6591 3.34
889 1 57.84 91.8333 4
890 1 59.045 93.9205 3.34
891 1 61.455 93.9205 4
892 1 62.66 91.8333 3.34
893 1 57.84 96.0076 4
894 1 59.045 98.0947 3.34
895 1 61.455 98.0947 4
896 1 62.66 96.0076 3.34
897 1 57.84 100.182 4
898 1 59.045 102.269 3.34
899 1 61.455 102.269 4
900 1 62.66 100.182 3.34
901 1 65.07 0 4
902 1 66.275 2.08712 3.34
903 1 68.685 2.08712 4
904 1 69.89 0 3.34
905 1 65.07 4.17424 4
906 1 66.275 6.26136 3.34
907 1 68.685 6.26136 4
908 1 69.89 4.17424 3.34
909 1 65.07 8.34848 4
910 1 66.275 10.4356 3.34
911 1 68.685 10.4356 4
912 1 69.89 8.34848 3.34
913 1 65.07 12.5227 4
914 1 66.275 14.6098 3.34
915 1 68.685 14.6098 4
916 1 69.89 12.5227 3.34
917 1 65.07 16.697 4
918 1 66.275 18.7841 3.34
919 1 68.685 18.7841 4
920 1 69.89 16.697 3.34
921 1 65.07 20.8712 4
922 1 66.275 22.9583 3.34
923 1 68.685 22.9583 4
924 1 69.89 20.8712 3.34
925 1 65.07 25.0455 4
926 1 66.275 27.1326 3.34
927 1 68.685 27.1326 4
928 1 69.89 25.0455 3.34
929 1 65.07 29.2197 4
930 1 66.275 31.3068 3.34
931 1 68.685 31.3068 4
932 1 69.89 29.2197 3.34
933 1 65.07 33.3939 4
934 1 66.275 35.4811 3.34
935 1 68.685 35.4811 4
936 1 69.89 33.3939 3.34
937 1 65.07 37.5682 4
938 1 66.275 39.6553 3.34
939 1 68.685 39.6553 4
940 1 69.89 37.5682 3.34
941 1 65.07 41.7424 4
942 1 66.275 43.8295 3.34
943 1 68.685 43.8295 4
944 1 69.89 41.7424 3.34
945 1 65.07 45.9167 4
946 1 66.275 48.0038 3.34
947 1 68.685 48.0038 4
948 1 69.89 45.9167 3.34
949 1 65.07 50.0909 4
950 1 66.275 52.178 3.34
951 1 68.685 52.178 4
952 1 69.89 50.0909 3.34
953 1 65.07 54.2652 4
954 1 66.275 56.3523 3.34
955 1 68.685 56.3523 4
956 1 69.89 54.2652 3.34
957 1 65.07 58.4394 4
958 1 66.275 60.5265 3.34
959 1 68.685 60.5265 4
960 1 69.89 58.4394 3.34
961 1 65.07 62.6136 4
962 1 66.275 64.7008 3.34
963 1 68.685 64.7008 4
964 1 69.89 62.6136 3.34
965 1 65.07 66.7879 4
966 1 66.275 68.875 3.34
967 1 68.685 68.875 4
968 1 69.89 66.7879 3.34
969 1 65.07 70.9621 4
970 1 66.275 73.0492 3.34
971 1 68.685 73.0492 4
972 1 69.89 70.9621 3.34
973 1 65.07 75.1364 4
974 1 66.275 77.2235 3.34
975 1 68.685 77.2235 4
976 1 69.89 75.1364 3.34
977 1 65.07 79.3106 4
978 1 66.275 81.3977 3.34
979 1 68.685 81.3977 4
980 1 69.89 79.3106 3.34
981 1 65.07 83.4848 4
982 1 66.275 85.572 3.34
983 1 68.685 85.572 4
984 1 69.89 83.4848 3.34
985 1 65.07 87.6591 4
986 1 66.275 89.7462 3.34
987 1 68.685 89.7462 4
988 1 69.89 87.6591 3.34
989 1 65.07 91.8333 4
990 1 66.275 93.9205 3.34
991 1 68.685 93.9205 4
992 1 69.89 91.8333 3.34
993 1 65.07 96.0076 4
994 1 66.275 98.0947 3.34
995 1 68.685 98.0947 4
996 1 69.89 96.0076 3.34
997 1 65.07 100.182 4
998 1 66.275 102.269 3.34
999 1 68.685 102.269 4
1000 1 69.89 100.182 3.34
1001 1 72.3 0 4
1002 1 73.505 2.08712 3.34
1003 1 75.915 2.08712 4
1004 1 77.12 0 3.34
1005 1 72.3 4.17424 4
1006 1 73.505 6.26136 3.34
1007 1 75.915 6.26136 4
1008 1 77.12 4.17424 3.34
1009 1 72.3 8.34848 4
1010 1 73.505 10.4356 3.34
1011 1 75.915 10.4356 4
1012 1 77.12 8.34848 3.34
1013 1 72.3 12.5227 4
1014 1 73.505 14.6098 3.34
1015 1 75.915 14.6098 4
1016 1 77.12 12.5227 3.34
1017 1 72.3 16.697 4
1018 1 73.505 18.7841 3.34
1019 1 75.915 18.7841 4
1020 1 77.12 16.697 3.34
1021 1 72.3 20.8712 4
1022 1 73.505 22.9583 3.34
1023 1 75.915 22.9583 4
1024 1 77.12 20.8712 3.34
1025 1 72.3 25.0455 4
1026 1 73.505 27.1326 3.34
1027 1 75.915 27.1326 4
1028 1 77.12 25.0455 3.34
1029 1 72.3 29.2197 4
1030 1 73.505 31.3068 3.34
1031 1 75.915 31.3068 4
1032 1 77.12 29.2197 3.34
1033 1 72.3 33.3939 4
1034 1 73.505 35.4811 3.34
1035 1 75.915 35.4811 4
1036 1 77.12 33.3939 3.34
1037 1 72.3 37.5682 4
1038 1 73.505 39.6553 3.34
1039 1 75.915 39.6553 4
1040 1 77.12 37.5682 3.34
1041 1 72.3 41.7424 4
1042 1 73.505 43.8295 3.34
1043 1 75.915 43.8295 4
1044 1 77.12 41.7424 3.34
1045 1 72.3 45.9167 4
1046 1 73.505 48.0038 3.34
1047 1 75.915 48.0038 4
1048 1 77.12 45.9167 3.34
1049 1 72.3 50.0909 4
1050 1 73.505 52.178 3.34
1051 1 75.915 52.178 4
1052 1 77.12 50.0909 3.34
1053 1 72.3 54.2652 4
1054 1 73.505 56.3523 3.34
1055 1 75.915 56.3523 4
1056 1 77.12 54.2652 3.34
1057 1 72.3 58.4394 4
1058 1 73.505 60.5265 3.34
1059 1 75.915 60.5265 4
1060 1 77.12 58.4394 3.34
1061 1 72.3 62.6136 4
1062 1 73.505 64.7008 3.34
1063 1 75.915 64.7008 4
1064 1 77.12 62.6136 3.34
1065 1 72.3 66.7879 4
1066 1 73.505 68.875 3.34
1067 1 75.915 68.875 4
1068 1 77.12 66.7879 3.34
1069 1 72.3 70.9621 4
1070 1 73.505 73.0492 3.34
1071 1 75.915 73.0492 4
1072 1 77.12 70.9621 3.34
1073 1 72.3 75.1364 4
1074 1 73.505 77.2235 3.34
1075 1 75.915 77.2235 4
1076 1 77.12 75.1364 3.34
1077 1 72.3 79.3106 4
1078 1 73.505 81.3977 3.34
1079 1 75.915 81.3977 4
1080 1 77.12 79.3106 3.34
1081 1 72.3 83.4848 4
1082 1 73.505 85.572 3.34
1083 1 75.915 85.572 4
1084 1 77.12 83.4848 3.34
1085 1 72.3 87.6591 4
1086 1 73.505 89.7462 3.34
1087 1 75.915 89.7462 4
1088 1 77.12 87.6591 3.34
1089 1 72.3 91.8333 4
1090 1 73.505 93.9205 3.34
1091 1 75.915 93.9205 4
1092 1 77.12 91.8333 3.34
1093 1 72.3 96.0076 4
1094 1 73.505 98.0947 3.34
1095 1 75.915 98.0947 4
1096 1 77.12 96.0076 3.34
1097 1 72.3 100.182 4
1098 1 73.505 102.269 3.34
1099 1 75.915 102.269 4
1100 1 77.12 100.182 3.34
1101 1 79.53 0 4
1102 1 80.735 2.08712 3.34
1103 1 83.145 2.08712 4
1104 1 84.35 0 3.34
1105 1 79.53 4.17424 4
1106 1 80.735 6.26136 3.34
1107 1 83.145 6.26136 4
1108 1 84.35 4.17424 3.34
1109 1 79.53 8.34848 4
1110 1 80.735 10.4356 3.34
1111 1 83.145 10.4356 4
1112 1 84.35 8.34848 3.34
1113 1 79.53 12.5227 4
1114 1 80.735 14.6098 3.34
1115 1 83.145 14.6098 4
1116 1 84.35 12.5227 3.34
1117 1 79.53 16.697 4
1118 1 80.735 18.7841 3.34
1119 1 83.145 18.7841 4
1120 1 84.35 16.697 3.34
1121 1 79.53 20.8712 4
1122 1 80.735 22.9583 3.34
1123 1 83.145 22.9583 4
1124 1 84.35 20.8712 3.34
1125 1 79.53 25.0455 4
1126 1 80.735 27.1326 3.34
1127 1 83.145 27.1326 4
1128 1 84.35 25.0455 3.34
1129 1 79.53 29.2197 4
1130 1 80.735 31.3068 3.34
1131 1 83.145 31.3068 4
1132 1 84.35 29.2197 3.34
1133 1 79.53 33.3939 4
1134 1 80.735 35.4811 3.34
1135 1 83.145 35.4811 4
1136 1 84.35 33.3939 3.34
1137 1 79.53 37.5682 4
1138 1 80.735 39.6553 3.34
1139 1 83.145 39.6553 4
1140 1 84.35 37.5682 3.34
1141 1 79.53 41.7424 4
1142 1 80.735 43.8295 3.34
1143 1 83.145 43.8295 4
1144 1 84.35 41.7424 3.34
1145 1 79.53 45.9167 4
1146 1 80.735 48.0038 3.34
1147 1 83.145 48.0038 4
1148 1 84.35 45.9167 3.34
1149 1 79.53 50.0909 4
1150 1 80.735 52.178 3.34
1151 1 83.145 52.178 4
1152 1 84.35 50.0909 3.34
1153 1 79.53 54.2652 4
1154 1 80.735 56.3523 3.34
1155 1 83.145 56.3523 4
1156 1 84.35 54.2652 3.34
1157 1 79.53 58.4394 4
1158 1 80.735 60.5265 3.34
1159 1 83.145 60.5265 4
1160 1 84.35 58.4394 3.34
1161 1 79.53 62.6136 4
1162 1 80.735 64.7008 3.34
1163 1 83.145 64.7008 4
1164 1 84.35 62.6136 3.34
1165 1 79.53 66.7879 4
1166 1 80.735 68.875 3.34
1167 1 83.145 68.875 4
1168 1 84.35 66.7879 3.34
1169 1 79.53 70.9621 4
1170 1 80.735 73.0492 3.34
1171 1 83.145 73.0492 4
1172 1 84.35 70.9621 3.34
1173 1 79.53 75.1364 4
1174 1 80.735 77.2235 3.34
1175 1 83.145 77.2235 4
1176 1 84.35 75.1364 3.34
1177 1 79.53 79.3106 4
1178 1 80.735 81.3977 3.34
1179 1 83.145 81.3977 4
1180 1 84.35 79.3106 3.34
1181 1 79.53 83.4848 4
1182 1 80.735 85.572 3.34
1183 1 83.145 85.572 4
1184 1 84.35 83.4848 3.34
1185 1 79.53 87.6591 4
1186 1 80.735 89.7462 3.34
1187 1 83.145 89.7462 4
1188 1 84.35 87.6591 3.34
1189 1 79.53 91.8333 4
1190 1 80.735 93.9205 3.34
1191 1 83.145 93.9205 4
1192 1 84.35 91.8333 3.34
1193 1 79.53 96.0076 4
1194 1 80.735 98.0947 3.34
1195 1 83.145 98.0947 4
1196 1 84.35 96.0076 3.34
1197 1 79.53 100.182 4
1198 1 80.735 102.269 3.34
1199 1 83.145 102.269 4
1200 1 84.35 100.182 3.34
1201 1 86.76 0 4
1202 1 87.965 2.08712 3.34
1203 1 90.375 2.08712 4
1204 1 91.58 0 3.34
1205 1 86.76 4.17424 4
1206 1 87.965 6.26136 3.34
1207 1 90.375 6.26136 4
1208 1 91.58 4.17424 3.34
1209 1 86.76 8.34848 4
1210 1 87.965 10.4356 3.34
1211 1 90.375 10.4356 4
1212 1 91.58 8.34848 3.34
1213 1 86.76 12.5227 4
1214 1 87.965 14.6098 3.34
1215 1 90.375 14.6098 4
1216 1 91.58 12.5227 3.34
1217 1 86.76 16.697 4
1218 1 87.965 18.7841 3.34
1219 1 90.375 18.7841 4
1220 1 91.58 16.697 3.34
1221 1 86.76 20.8712 4
1222 1 87.965 22.9583 3.34
1223 1 90.375 22.9583 4
1224 1 91.58 20.8712 3.34
1225 1 86.76 25.0455 4
1226 1 87.965 27.1326 3.34
1227 1 90.375 27.1326 4
1228 1 91.58 25.0455 3.34
1229 1 86.76 29.2197 4
1230 1 87.965 31.3068 3.34
1231 1 90.375 31.3068 4
1232 1 91.58 29.2197 3.34
1233 1 86.76 33.3939 4
1234 1 87.965 35.4811 3.34
1235 1 90.375 35.4811 4
1236 1 91.58 33.3939 3.34
1237 1 86.76 37.5682 4
1238 1 87.965 39.6553 3.34
1239 1 90.375 39.6553 4
1240 1 91.58 37.5682 3.34
1241 1 86.76 41.7424 4
1242 1 87.965 43.8295 3.34
1243 1 90.375 43.8295 4
1244 1 91.58 41.7424 3.34
1245 1 86.76 45.9167 4
1246 1 87.965 48.0038 3.34
1247 1 90.375 48.0038 4
1248 1 91.58 45.9167 3.34
1249 1 86.76 50.0909 4
1250 1 87.965 52.178 3.34
1251 1 90.375 52.178 4
1252 1 91.58 50.0909 3.34
1253 1 86.76 54.2652 4
1254 1 87.965 56.3523 3.34
1255 1 90.375 56.3523 4
1256 1 91.58 54.2652 3.34
1257 1 86.76 58.4394 4
1258 1 87.965 60.5265 3.34
1259 1 90.375 60.5265 4