#germanene 20x20, a=2.41(2.49874), lx=28, ly=49
10976 atoms

2 atom types

0 202.44 xlo xhi
0 204.538 ylo yhi
-80 80 zlo zhi

Masses

1 28.0855
2 28.0855

Atoms

1 1 0 0 4
2 1 1.205 2.08712 3.34
3 1 3.615 2.08712 4
4 1 4.82 0 3.34
5 1 0 4.17424 4
6 1 1.205 6.26136 3.34
7 1 3.615 6.26136 4
8 1 4.82 4.17424 3.34
9 1 0 8.34848 4
10 1 1.205 10.4356 3.34
11 1 3.615 10.4356 4
12 1 4.82 8.34848 3.34
13 1 0 12.5227 4
14 1 1.205 14.6098 3.34
15 1 3.615 14.6098 4
16 1 4.82 12.5227 3.34
17 1 0 16.697 4
18 1 1.205 18.7841 3.34
19 1 3.615 18.7841 4
20 1 4.82 16.697 3.34
21 1 0 20.8712 4
22 1 1.205 22.9583 3.34
23 1 3.615 22.9583 4
24 1 4.82 20.8712 3.34
25 1 0 25.0455 4
26 1 1.205 27.1326 3.34
27 1 3.615 27.1326 4
28 1 4.82 25.0455 3.34
29 1 0 29.2197 4
30 1 1.205 31.3068 3.34
31 1 3.615 31.3068 4
32 1 4.82 29.2197 3.34
33 1 0 33.3939 4
34 1 1.205 35.4811 3.34
35 1 3.615 35.4811 4
36 1 4.82 33.3939 3.34
37 1 0 37.5682 4
38 1 1.205 39.6553 3.34
39 1 3.615 39.6553 4
40 1 4.82 37.5682 3.34
41 1 0 41.7424 4
42 1 1.205 43.8295 3.34
43 1 3.615 43.8295 4
44 1 4.82 41.7424 3.34
45 1 0 45.9167 4
46 1 1.205 48.0038 3.34
47 1 3.615 48.0038 4
48 1 4.82 45.9167 3.34
49 1 0 50.0909 4
50 1 1.205 52.178 3.34
51 1 3.615 52.178 4
52 1 4.82 50.0909 3.34
53 1 0 54.2652 4
54 1 1.205 56.3523 3.34
55 1 3.615 56.3523 4
56 1 4.82 54.2652 3.34
57 1 0 58.4394 4
58 1 1.205 60.5265 3.34
59 1 3.615 60.5265 4
60 1 4.82 58.4394 3.34
61 1 0 62.6136 4
62 1 1.205 64.7008 3.34
63 1 3.615 64.7008 4
64 1 4.82 62.6136 3.34
65 1 0 66.7879 4
66 1 1.205 68.875 3.34
67 1 3.615 68.875 4
68 1 4.82 66.7879 3.34
69 1 0 70.9621 4
70 1 1.205 73.0492 3.34
71 1 3.615 73.0492 4
72 1 4.82 70.9621 3.34
73 1 0 75.1364 4
74 1 1.205 77.2235 3.34
75 1 3.615 77.2235 4
76 1 4.82 75.1364 3.34
77 1 0 79.3106 4
78 1 1.205 81.3977 3.34
79 1 3.615 81.3977 4
80 1 4.82 79.3106 3.34
81 1 0 83.4848 4
82 1 1.205 85.572 3.34
83 1 3.615 85.572 4
84 1 4.82 83.4848 3.34
85 1 0 87.6591 4
86 1 1.205 89.7462 3.34
87 1 3.615 89.7462 4
88 1 4.82 87.6591 3.34
89 1 0 91.8333 4
90 1 1.205 93.9205 3.34
91 1 3.615 93.9205 4
92 1 4.82 91.8333 3.34
93 1 0 96.0076 4
94 1 1.205 98.0947 3.34
95 1 3.615 98.0947 4
96 1 4.82 96.0076 3.34
97 1 0 100.182 4
98 1 1.205 102.269 3.34
99 1 3.615 102.269 4
100 1 4.82 100.182 3.34
101 1 0 104.356 4
102 1 1.205 106.443 3.34
103 1 3.615 106.443 4
104 1 4.82 104.356 3.34
105 1 0 108.53 4
106 1 1.205 110.617 3.34
107 1 3.615 110.617 4
108 1 4.82 108.53 3.34
109 1 0 112.705 4
110 1 1.205 114.792 3.34
111 1 3.615 114.792 4
112 1 4.82 112.705 3.34
113 1 0 116.879 4
114 1 1.205 118.966 3.34
115 1 3.615 118.966 4
116 1 4.82 116.879 3.34
117 1 0 121.053 4
118 1 1.205 123.14 3.34
119 1 3.615 123.14 4
120 1 4.82 121.053 3.34
121 1 0 125.227 4
122 1 1.205 127.314 3.34
123 1 3.615 127.314 4
124 1 4.82 125.227 3.34
125 1 0 129.402 4
126 1 1.205 131.489 3.34
127 1 3.615 131.489 4
128 1 4.82 129.402 3.34
129 1 0 133.576 4
130 1 1.205 135.663 3.34
131 1 3.615 135.663 4
132 1 4.82 133.576 3.34
133 1 0 137.75 4
134 1 1.205 139.837 3.34
135 1 3.615 139.837 4
136 1 4.82 137.75 3.34
137 1 0 141.924 4
138 1 1.205 144.011 3.34
139 1 3.615 144.011 4
140 1 4.82 141.924 3.34
141 1 0 146.098 4
142 1 1.205 148.186 3.34
143 1 3.615 148.186 4
144 1 4.82 146.098 3.34
145 1 0 150.273 4
146 1 1.205 152.36 3.34
147 1 3.615 152.36 4
148 1 4.82 150.273 3.34
149 1 0 154.447 4
150 1 1.205 156.534 3.34
151 1 3.615 156.534 4
152 1 4.82 154.447 3.34
153 1 0 158.621 4
154 1 1.205 160.708 3.34
155 1 3.615 160.708 4
156 1 4.82 158.621 3.34
157 1 0 162.795 4
158 1 1.205 164.883 3.34
159 1 3.615 164.883 4
160 1 4.82 162.795 3.34
161 1 0 166.97 4
162 1 1.205 169.057 3.34
163 1 3.615 169.057 4
164 1 4.82 166.97 3.34
165 1 0 171.144 4
166 1 1.205 173.231 3.34
167 1 3.615 173.231 4
168 1 4.82 171.144 3.34
169 1 0 175.318 4
170 1 1.205 177.405 3.34
171 1 3.615 177.405 4
172 1 4.82 175.318 3.34
173 1 0 179.492 4
174 1 1.205 181.58 3.34
175 1 3.615 181.58 4
176 1 4.82 179.492 3.34
177 1 0 183.667 4
178 1 1.205 185.754 3.34
179 1 3.615 185.754 4
180 1 4.82 183.667 3.34
181 1 0 187.841 4
182 1 1.205 189.928 3.34
183 1 3.615 189.928 4
184 1 4.82 187.841 3.34
185 1 0 192.015 4
186 1 1.205 194.102 3.34
187 1 3.615 194.102 4
188 1 4.82 192.015 3.34
189 1 0 196.189 4
190 1 1.205 198.277 3.34
191 1 3.615 198.277 4
192 1 4.82 196.189 3.34
193 1 0 200.364 4
194 1 1.205 202.451 3.34
195 1 3.615 202.451 4
196 1 4.82 200.364 3.34
197 1 7.23 0 4
198 1 8.435 2.08712 3.34
199 1 10.845 2.08712 4
200 1 12.05 0 3.34
201 1 7.23 4.17424 4
202 1 8.435 6.26136 3.34
203 1 10.845 6.26136 4
204 1 12.05 4.17424 3.34
205 1 7.23 8.34848 4
206 1 8.435 10.4356 3.34
207 1 10.845 10.4356 4
208 1 12.05 8.34848 3.34
209 1 7.23 12.5227 4
210 1 8.435 14.6098 3.34
211 1 10.845 14.6098 4
212 1 12.05 12.5227 3.34
213 1 7.23 16.697 4
214 1 8.435 18.7841 3.34
215 1 10.845 18.7841 4
216 1 12.05 16.697 3.34
217 1 7.23 20.8712 4
218 1 8.435 22.9583 3.34
219 1 10.845 22.9583 4
220 1 12.05 20.8712 3.34
221 1 7.23 25.0455 4
222 1 8.435 27.1326 3.34
223 1 10.845 27.1326 4
224 1 12.05 25.0455 3.34
225 1 7.23 29.2197 4
226 1 8.435 31.3068 3.34
227 1 10.845 31.3068 4
228 1 12.05 29.2197 3.34
229 1 7.23 33.3939 4
230 1 8.435 35.4811 3.34
231 1 10.845 35.4811 4
232 1 12.05 33.3939 3.34
233 1 7.23 37.5682 4
234 1 8.435 39.6553 3.34
235 1 10.845 39.6553 4
236 1 12.05 37.5682 3.34
237 1 7.23 41.7424 4
238 1 8.435 43.8295 3.34
239 1 10.845 43.8295 4
240 1 12.05 41.7424 3.34
241 1 7.23 45.9167 4
242 1 8.435 48.0038 3.34
243 1 10.845 48.0038 4
244 1 12.05 45.9167 3.34
245 1 7.23 50.0909 4
246 1 8.435 52.178 3.34
247 1 10.845 52.178 4
248 1 12.05 50.0909 3.34
249 1 7.23 54.2652 4
250 1 8.435 56.3523 3.34
251 1 10.845 56.3523 4
252 1 12.05 54.2652 3.34
253 1 7.23 58.4394 4
254 1 8.435 60.5265 3.34
255 1 10.845 60.5265 4
256 1 12.05 58.4394 3.34
257 1 7.23 62.6136 4
258 1 8.435 64.7008 3.34
259 1 10.845 64.7008 4
260 1 12.05 62.6136 3.34
261 1 7.23 66.7879 4
262 1 8.435 68.875 3.34
263 1 10.845 68.875 4
264 1 12.05 66.7879 3.34
265 1 7.23 70.9621 4
266 1 8.435 73.0492 3.34
267 1 10.845 73.0492 4
268 1 12.05 70.9621 3.34
269 1 7.23 75.1364 4
270 1 8.435 77.2235 3.34
271 1 10.845 77.2235 4
272 1 12.05 75.1364 3.34
273 1 7.23 79.3106 4
274 1 8.435 81.3977 3.34
275 1 10.845 81.3977 4
276 1 12.05 79.3106 3.34
277 1 7.23 83.4848 4
278 1 8.435 85.572 3.34
279 1 10.845 85.572 4
280 1 12.05 83.4848 3.34
281 1 7.23 87.6591 4
282 1 8.435 89.7462 3.34
283 1 10.845 89.7462 4
284 1 12.05 87.6591 3.34
285 1 7.23 91.8333 4
286 1 8.435 93.9205 3.34
287 1 10.845 93.9205 4
288 1 12.05 91.8333 3.34
289 1 7.23 96.0076 4
290 1 8.435 98.0947 3.34
291 1 10.845 98.0947 4
292 1 12.05 96.0076 3.34
293 1 7.23 100.182 4
294 1 8.435 102.269 3.34
295 1 10.845 102.269 4
296 1 12.05 100.182 3.34
297 1 7.23 104.356 4
298 1 8.435 106.443 3.34
299 1 10.845 106.443 4
300 1 12.05 104.356 3.34
301 1 7.23 108.53 4
302 1 8.435 110.617 3.34
303 1 10.845 110.617 4
304 1 12.05 108.53 3.34
305 1 7.23 112.705 4
306 1 8.435 114.792 3.34
307 1 10.845 114.792 4
308 1 12.05 112.705 3.34
309 1 7.23 116.879 4
310 1 8.435 118.966 3.34
311 1 10.845 118.966 4
312 1 12.05 116.879 3.34
313 1 7.23 121.053 4
314 1 8.435 123.14 3.34
315 1 10.845 123.14 4
316 1 12.05 121.053 3.34
317 1 7.23 125.227 4
318 1 8.435 127.314 3.34
319 1 10.845 127.314 4
320 1 12.05 125.227 3.34
321 1 7.23 129.402 4
322 1 8.435 131.489 3.34
323 1 10.845 131.489 4
324 1 12.05 129.402 3.34
325 1 7.23 133.576 4
326 1 8.435 135.663 3.34
327 1 10.845 135.663 4
328 1 12.05 133.576 3.34
329 1 7.23 137.75 4
330 1 8.435 139.837 3.34
331 1 10.845 139.837 4
332 1 12.05 137.75 3.34
333 1 7.23 141.924 4
334 1 8.435 144.011 3.34
335 1 10.845 144.011 4
336 1 12.05 141.924 3.34
337 1 7.23 146.098 4
338 1 8.435 148.186 3.34
339 1 10.845 148.186 4
340 1 12.05 146.098 3.34
341 1 7.23 150.273 4
342 1 8.435 152.36 3.34
343 1 10.845 152.36 4
344 1 12.05 150.273 3.34
345 1 7.23 154.447 4
346 1 8.435 156.534 3.34
347 1 10.845 156.534 4
348 1 12.05 154.447 3.34
349 1 7.23 158.621 4
350 1 8.435 160.708 3.34
351 1 10.845 160.708 4
352 1 12.05 158.621 3.34
353 1 7.23 162.795 4
354 1 8.435 164.883 3.34
355 1 10.845 164.883 4
356 1 12.05 162.795 3.34
357 1 7.23 166.97 4
358 1 8.435 169.057 3.34
359 1 10.845 169.057 4
360 1 12.05 166.97 3.34
361 1 7.23 171.144 4
362 1 8.435 173.231 3.34
363 1 10.845 173.231 4
364 1 12.05 171.144 3.34
365 1 7.23 175.318 4
366 1 8.435 177.405 3.34
367 1 10.845 177.405 4
368 1 12.05 175.318 3.34
369 1 7.23 179.492 4
370 1 8.435 181.58 3.34
371 1 10.845 181.58 4
372 1 12.05 179.492 3.34
373 1 7.23 183.667 4
374 1 8.435 185.754 3.34
375 1 10.845 185.754 4
376 1 12.05 183.667 3.34
377 1 7.23 187.841 4
378 1 8.435 189.928 3.34
379 1 10.845 189.928 4
380 1 12.05 187.841 3.34
381 1 7.23 192.015 4
382 1 8.435 194.102 3.34
383 1 10.845 194.102 4
384 1 12.05 192.015 3.34
385 1 7.23 196.189 4
386 1 8.435 198.277 3.34
387 1 10.845 198.277 4
388 1 12.05 196.189 3.34
389 1 7.23 200.364 4
390 1 8.435 202.451 3.34
391 1 10.845 202.451 4
392 1 12.05 200.364 3.34
393 1 14.46 0 4
394 1 15.665 2.08712 3.34
395 1 18.075 2.08712 4
396 1 19.28 0 3.34
397 1 14.46 4.17424 4
398 1 15.665 6.26136 3.34
399 1 18.075 6.26136 4
400 1 19.28 4.17424 3.34
401 1 14.46 8.34848 4
402 1 15.665 10.4356 3.34
403 1 18.075 10.4356 4
404 1 19.28 8.34848 3.34
405 1 14.46 12.5227 4
406 1 15.665 14.6098 3.34
407 1 18.075 14.6098 4
408 1 19.28 12.5227 3.34
409 1 14.46 16.697 4
410 1 15.665 18.7841 3.34
411 1 18.075 18.7841 4
412 1 19.28 16.697 3.34
413 1 14.46 20.8712 4
414 1 15.665 22.9583 3.34
415 1 18.075 22.9583 4
416 1 19.28 20.8712 3.34
417 1 14.46 25.0455 4
418 1 15.665 27.1326 3.34
419 1 18.075 27.1326 4
420 1 19.28 25.0455 3.34
421 1 14.46 29.2197 4
422 1 15.665 31.3068 3.34
423 1 18.075 31.3068 4
424 1 19.28 29.2197 3.34
425 1 14.46 33.3939 4
426 1 15.665 35.4811 3.34
427 1 18.075 35.4811 4
428 1 19.28 33.3939 3.34
429 1 14.46 37.5682 4
430 1 15.665 39.6553 3.34
431 1 18.075 39.6553 4
432 1 19.28 37.5682 3.34
433 1 14.46 41.7424 4
434 1 15.665 43.8295 3.34
435 1 18.075 43.8295 4
436 1 19.28 41.7424 3.34
437 1 14.46 45.9167 4
438 1 15.665 48.0038 3.34
439 1 18.075 48.0038 4
440 1 19.28 45.9167 3.34
441 1 14.46 50.0909 4
442 1 15.665 52.178 3.34
443 1 18.075 52.178 4
444 1 19.28 50.0909 3.34
445 1 14.46 54.2652 4
446 1 15.665 56.3523 3.34
447 1 18.075 56.3523 4
448 1 19.28 54.2652 3.34
449 1 14.46 58.4394 4
450 1 15.665 60.5265 3.34
451 1 18.075 60.5265 4
452 1 19.28 58.4394 3.34
453 1 14.46 62.6136 4
454 1 15.665 64.7008 3.34
455 1 18.075 64.7008 4
456 1 19.28 62.6136 3.34
457 1 14.46 66.7879 4
458 1 15.665 68.875 3.34
459 1 18.075 68.875 4
460 1 19.28 66.7879 3.34
461 1 14.46 70.9621 4
462 1 15.665 73.0492 3.34
463 1 18.075 73.0492 4
464 1 19.28 70.9621 3.34
465 1 14.46 75.1364 4
466 1 15.665 77.2235 3.34
467 1 18.075 77.2235 4
468 1 19.28 75.1364 3.34
469 1 14.46 79.3106 4
470 1 15.665 81.3977 3.34
471 1 18.075 81.3977 4
472 1 19.28 79.3106 3.34
473 1 14.46 83.4848 4
474 1 15.665 85.572 3.34
475 1 18.075 85.572 4
476 1 19.28 83.4848 3.34
477 1 14.46 87.6591 4
478 1 15.665 89.7462 3.34
479 1 18.075 89.7462 4
480 1 19.28 87.6591 3.34
481 1 14.46 91.8333 4
482 1 15.665 93.9205 3.34
483 1 18.075 93.9205 4
484 1 19.28 91.8333 3.34
485 1 14.46 96.0076 4
486 1 15.665 98.0947 3.34
487 1 18.075 98.0947 4
488 1 19.28 96.0076 3.34
489 1 14.46 100.182 4
490 1 15.665 102.269 3.34
491 1 18.075 102.269 4
492 1 19.28 100.182 3.34
493 1 14.46 104.356 4
494 1 15.665 106.443 3.34
495 1 18.075 106.443 4
496 1 19.28 104.356 3.34
497 1 14.46 108.53 4
498 1 15.665 110.617 3.34
499 1 18.075 110.617 4
500 1 19.28 108.53 3.34
501 1 14.46 112.705 4
502 1 15.665 114.792 3.34
503 1 18.075 114.792 4
504 1 19.28 112.705 3.34
505 1 14.46 116.879 4
506 1 15.665 118.966 3.34
507 1 18.075 118.966 4
508 1 19.28 116.879 3.34
509 1 14.46 121.053 4
510 1 15.665 123.14 3.34
511 1 18.075 123.14 4
512 1 19.28 121.053 3.34
513 1 14.46 125.227 4
514 1 15.665 127.314 3.34
515 1 18.075 127.314 4
516 1 19.28 125.227 3.34
517 1 14.46 129.402 4
518 1 15.665 131.489 3.34
519 1 18.075 131.489 4
520 1 19.28 129.402 3.34
521 1 14.46 133.576 4
522 1 15.665 135.663 3.34
523 1 18.075 135.663 4
524 1 19.28 133.576 3.34
525 1 14.46 137.75 4
526 1 15.665 139.837 3.34
527 1 18.075 139.837 4
528 1 19.28 137.75 3.34
529 1 14.46 141.924 4
530 1 15.665 144.011 3.34
531 1 18.075 144.011 4
532 1 19.28 141.924 3.34
533 1 14.46 146.098 4
534 1 15.665 148.186 3.34
535 1 18.075 148.186 4
536 1 19.28 146.098 3.34
537 1 14.46 150.273 4
538 1 15.665 152.36 3.34
539 1 18.075 152.36 4
540 1 19.28 150.273 3.34
541 1 14.46 154.447 4
542 1 15.665 156.534 3.34
543 1 18.075 156.534 4
544 1 19.28 154.447 3.34
545 1 14.46 158.621 4
546 1 15.665 160.708 3.34
547 1 18.075 160.708 4
548 1 19.28 158.621 3.34
549 1 14.46 162.795 4
550 1 15.665 164.883 3.34
551 1 18.075 164.883 4
552 1 19.28 162.795 3.34
553 1 14.46 166.97 4
554 1 15.665 169.057 3.34
555 1 18.075 169.057 4
556 1 19.28 166.97 3.34
557 1 14.46 171.144 4
558 1 15.665 173.231 3.34
559 1 18.075 173.231 4
560 1 19.28 171.144 3.34
561 1 14.46 175.318 4
562 1 15.665 177.405 3.34
563 1 18.075 177.405 4
564 1 19.28 175.318 3.34
565 1 14.46 179.492 4
566 1 15.665 181.58 3.34
567 1 18.075 181.58 4
568 1 19.28 179.492 3.34
569 1 14.46 183.667 4
570 1 15.665 185.754 3.34
571 1 18.075 185.754 4
572 1 19.28 183.667 3.34
573 1 14.46 187.841 4
574 1 15.665 189.928 3.34
575 1 18.075 189.928 4
576 1 19.28 187.841 3.34
577 1 14.46 192.015 4
578 1 15.665 194.102 3.34
579 1 18.075 194.102 4
580 1 19.28 192.015 3.34
581 1 14.46 196.189 4
582 1 15.665 198.277 3.34
583 1 18.075 198.277 4
584 1 19.28 196.189 3.34
585 1 14.46 200.364 4
586 1 15.665 202.451 3.34
587 1 18.075 202.451 4
588 1 19.28 200.364 3.34
589 1 21.69 0 4
590 1 22.895 2.08712 3.34
591 1 25.305 2.08712 4
592 1 26.51 0 3.34
593 1 21.69 4.17424 4
594 1 22.895 6.26136 3.34
595 1 25.305 6.26136 4
596 1 26.51 4.17424 3.34
597 1 21.69 8.34848 4
598 1 22.895 10.4356 3.34
599 1 25.305 10.4356 4
600 1 26.51 8.34848 3.34
601 1 21.69 12.5227 4
602 1 22.895 14.6098 3.34
603 1 25.305 14.6098 4
604 1 26.51 12.5227 3.34
605 1 21.69 16.697 4
606 1 22.895 18.7841 3.34
607 1 25.305 18.7841 4
608 1 26.51 16.697 3.34
609 1 21.69 20.8712 4
610 1 22.895 22.9583 3.34
611 1 25.305 22.9583 4
612 1 26.51 20.8712 3.34
613 1 21.69 25.0455 4
614 1 22.895 27.1326 3.34
615 1 25.305 27.1326 4
616 1 26.51 25.0455 3.34
617 1 21.69 29.2197 4
618 1 22.895 31.3068 3.34
619 1 25.305 31.3068 4
620 1 26.51 29.2197 3.34
621 1 21.69 33.3939 4
622 1 22.895 35.4811 3.34
623 1 25.305 35.4811 4
624 1 26.51 33.3939 3.34
625 1 21.69 37.5682 4
626 1 22.895 39.6553 3.34
627 1 25.305 39.6553 4
628 1 26.51 37.5682 3.34
629 1 21.69 41.7424 4
630 1 22.895 43.8295 3.34
631 1 25.305 43.8295 4
632 1 26.51 41.7424 3.34
633 1 21.69 45.9167 4
634 1 22.895 48.0038 3.34
635 1 25.305 48.0038 4
636 1 26.51 45.9167 3.34
637 1 21.69 50.0909 4
638 1 22.895 52.178 3.34
639 1 25.305 52.178 4
640 1 26.51 50.0909 3.34
641 1 21.69 54.2652 4
642 1 22.895 56.3523 3.34
643 1 25.305 56.3523 4
644 1 26.51 54.2652 3.34
645 1 21.69 58.4394 4
646 1 22.895 60.5265 3.34
647 1 25.305 60.5265 4
648 1 26.51 58.4394 3.34
649 1 21.69 62.6136 4
650 1 22.895 64.7008 3.34
651 1 25.305 64.7008 4
652 1 26.51 62.6136 3.34
653 1 21.69 66.7879 4
654 1 22.895 68.875 3.34
655 1 25.305 68.875 4
656 1 26.51 66.7879 3.34
657 1 21.69 70.9621 4
658 1 22.895 73.0492 3.34
659 1 25.305 73.0492 4
660 1 26.51 70.9621 3.34
661 1 21.69 75.1364 4
662 1 22.895 77.2235 3.34
663 1 25.305 77.2235 4
664 1 26.51 75.1364 3.34
665 1 21.69 79.3106 4
666 1 22.895 81.3977 3.34
667 1 25.305 81.3977 4
668 1 26.51 79.3106 3.34
669 1 21.69 83.4848 4
670 1 22.895 85.572 3.34
671 1 25.305 85.572 4
672 1 26.51 83.4848 3.34
673 1 21.69 87.6591 4
674 1 22.895 89.7462 3.34
675 1 25.305 89.7462 4
676 1 26.51 87.6591 3.34
677 1 21.69 91.8333 4
678 1 22.895 93.9205 3.34
679 1 25.305 93.9205 4
680 1 26.51 91.8333 3.34
681 1 21.69 96.0076 4
682 1 22.895 98.0947 3.34
683 1 25.305 98.0947 4
684 1 26.51 96.0076 3.34
685 1 21.69 100.182 4
686 1 22.895 102.269 3.34
687 1 25.305 102.269 4
688 1 26.51 100.182 3.34
689 1 21.69 104.356 4
690 1 22.895 106.443 3.34
691 1 25.305 106.443 4
692 1 26.51 104.356 3.34
693 1 21.69 108.53 4
694 1 22.895 110.617 3.34
695 1 25.305 110.617 4
696 1 26.51 108.53 3.34
697 1 21.69 112.705 4
698 1 22.895 114.792 3.34
699 1 25.305 114.792 4
700 1 26.51 112.705 3.34
701 1 21.69 116.879 4
702 1 22.895 118.966 3.34
703 1 25.305 118.966 4
704 1 26.51 116.879 3.34
705 1 21.69 121.053 4
706 1 22.895 123.14 3.34
707 1 25.305 123.14 4
708 1 26.51 121.053 3.34
709 1 21.69 125.227 4
710 1 22.895 127.314 3.34
711 1 25.305 127.314 4
712 1 26.51 125.227 3.34
713 1 21.69 129.402 4
714 1 22.895 131.489 3.34
715 1 25.305 131.489 4
716 1 26.51 129.402 3.34
717 1 21.69 133.576 4
718 1 22.895 135.663 3.34
719 1 25.305 135.663 4
720 1 26.51 133.576 3.34
721 1 21.69 137.75 4
722 1 22.895 139.837 3.34
723 1 25.305 139.837 4
724 1 26.51 137.75 3.34
725 1 21.69 141.924 4
726 1 22.895 144.011 3.34
727 1 25.305 144.011 4
728 1 26.51 141.924 3.34
729 1 21.69 146.098 4
730 1 22.895 148.186 3.34
731 1 25.305 148.186 4
732 1 26.51 146.098 3.34
733 1 21.69 150.273 4
734 1 22.895 152.36 3.34
735 1 25.305 152.36 4
736 1 26.51 150.273 3.34
737 1 21.69 154.447 4
738 1 22.895 156.534 3.34
739 1 25.305 156.534 4
740 1 26.51 154.447 3.34
741 1 21.69 158.621 4
742 1 22.895 160.708 3.34
743 1 25.305 160.708 4
744 1 26.51 158.621 3.34
745 1 21.69 162.795 4
746 1 22.895 164.883 3.34
747 1 25.305 164.883 4
748 1 26.51 162.795 3.34
749 1 21.69 166.97 4
750 1 22.895 169.057 3.34
751 1 25.305 169.057 4
752 1 26.51 166.97 3.34
753 1 21.69 171.144 4
754 1 22.895 173.231 3.34
755 1 25.305 173.231 4
756 1 26.51 171.144 3.34
757 1 21.69 175.318 4
758 1 22.895 177.405 3.34
759 1 25.305 177.405 4
760 1 26.51 175.318 3.34
761 1 21.69 179.492 4
762 1 22.895 181.58 3.34
763 1 25.305 181.58 4
764 1 26.51 179.492 3.34
765 1 21.69 183.667 4
766 1 22.895 185.754 3.34
767 1 25.305 185.754 4
768 1 26.51 183.667 3.34
769 1 21.69 187.841 4
770 1 22.895 189.928 3.34
771 1 25.305 189.928 4
772 1 26.51 187.841 3.34
773 1 21.69 192.015 4
774 1 22.895 194.102 3.34
775 1 25.305 194.102 4
776 1 26.51 192.015 3.34
777 1 21.69 196.189 4
778 1 22.895 198.277 3.34
779 1 25.305 198.277 4
780 1 26.51 196.189 3.34
781 1 21.69 200.364 4
782 1 22.895 202.451 3.34
783 1 25.305 202.451 4
784 1 26.51 200.364 3.34
785 1 28.92 0 4
786 1 30.125 2.08712 3.34
787 1 32.535 2.08712 4
788 1 33.74 0 3.34
789 1 28.92 4.17424 4
790 1 30.125 6.26136 3.34
791 1 32.535 6.26136 4
792 1 33.74 4.17424 3.34
793 1 28.92 8.34848 4
794 1 30.125 10.4356 3.34
795 1 32.535 10.4356 4
796 1 33.74 8.34848 3.34
797 1 28.92 12.5227 4
798 1 30.125 14.6098 3.34
799 1 32.535 14.6098 4
800 1 33.74 12.5227 3.34
801 1 28.92 16.697 4
802 1 30.125 18.7841 3.34
803 1 32.535 18.7841 4
804 1 33.74 16.697 3.34
805 1 28.92 20.8712 4
806 1 30.125 22.9583 3.34
807 1 32.535 22.9583 4
808 1 33.74 20.8712 3.34
809 1 28.92 25.0455 4
810 1 30.125 27.1326 3.34
811 1 32.535 27.1326 4
812 1 33.74 25.0455 3.34
813 1 28.92 29.2197 4
814 1 30.125 31.3068 3.34
815 1 32.535 31.3068 4
816 1 33.74 29.2197 3.34
817 1 28.92 33.3939 4
818 1 30.125 35.4811 3.34
819 1 32.535 35.4811 4
820 1 33.74 33.3939 3.34
821 1 28.92 37.5682 4
822 1 30.125 39.6553 3.34
823 1 32.535 39.6553 4
824 1 33.74 37.5682 3.34
825 1 28.92 41.7424 4
826 1 30.125 43.8295 3.34
827 1 32.535 43.8295 4
828 1 33.74 41.7424 3.34
829 1 28.92 45.9167 4
830 1 30.125 48.0038 3.34
831 1 32.535 48.0038 4
832 1 33.74 45.9167 3.34
833 1 28.92 50.0909 4
834 1 30.125 52.178 3.34
835 1 32.535 52.178 4
836 1 33.74 50.0909 3.34
837 1 28.92 54.2652 4
838 1 30.125 56.3523 3.34
839 1 32.535 56.3523 4
840 1 33.74 54.2652 3.34
841 1 28.92 58.4394 4
842 1 30.125 60.5265 3.34
843 1 32.535 60.5265 4
844 1 33.74 58.4394 3.34
845 1 28.92 62.6136 4
846 1 30.125 64.7008 3.34
847 1 32.535 64.7008 4
848 1 33.74 62.6136 3.34
849 1 28.92 66.7879 4
850 1 30.125 68.875 3.34
851 1 32.535 68.875 4
852 1 33.74 66.7879 3.34
853 1 28.92 70.9621 4
854 1 30.125 73.0492 3.34
855 1 32.535 73.0492 4
856 1 33.74 70.9621 3.34
857 1 28.92 75.1364 4
858 1 30.125 77.2235 3.34
859 1 32.535 77.2235 4
860 1 33.74 75.1364 3.34
861 1 28.92 79.3106 4
862 1 30.125 81.3977 3.34
863 1 32.535 81.3977 4
864 1 33.74 79.3106 3.34
865 1 28.92 83.4848 4
866 1 30.125 85.572 3.34
867 1 32.535 85.572 4
868 1 33.74 83.4848 3.34
869 1 28.92 87.6591 4
870 1 30.125 89.7462 3.34
871 1 32.535 89.7462 4
872 1 33.74 87.6591 3.34
873 1 28.92 91.8333 4
874 1 30.125 93.9205 3.34
875 1 32.535 93.9205 4
876 1 33.74 91.8333 3.34
877 1 28.92 96.0076 4
878 1 30.125 98.0947 3.34
879 1 32.535 98.0947 4
880 1 33.74 96.0076 3.34
881 1 28.92 100.182 4
882 1 30.125 102.269 3.34
883 1 32.535 102.269 4
884 1 33.74 100.182 3.34
885 1 28.92 104.356 4
886 1 30.125 106.443 3.34
887 1 32.535 106.443 4
888 1 33.74 104.356 3.34
889 1 28.92 108.53 4
890 1 30.125 110.617 3.34
891 1 32.535 110.617 4
892 1 33.74 108.53 3.34
893 1 28.92 112.705 4
894 1 30.125 114.792 3.34
895 1 32.535 114.792 4
896 1 33.74 112.705 3.34
897 1 28.92 116.879 4
898 1 30.125 118.966 3.34
899 1 32.535 118.966 4
900 1 33.74 116.879 3.34
901 1 28.92 121.053 4
902 1 30.125 123.14 3.34
903 1 32.535 123.14 4
904 1 33.74 121.053 3.34
905 1 28.92 125.227 4
906 1 30.125 127.314 3.34
907 1 32.535 127.314 4
908 1 33.74 125.227 3.34
909 1 28.92 129.402 4
910 1 30.125 131.489 3.34
911 1 32.535 131.489 4
912 1 33.74 129.402 3.34
913 1 28.92 133.576 4
914 1 30.125 135.663 3.34
915 1 32.535 135.663 4
916 1 33.74 133.576 3.34
917 1 28.92 137.75 4
918 1 30.125 139.837 3.34
919 1 32.535 139.837 4
920 1 33.74 137.75 3.34
921 1 28.92 141.924 4
922 1 30.125 144.011 3.34
923 1 32.535 144.011 4
924 1 33.74 141.924 3.34
925 1 28.92 146.098 4
926 1 30.125 148.186 3.34
927 1 32.535 148.186 4
928 1 33.74 146.098 3.34
929 1 28.92 150.273 4
930 1 30.125 152.36 3.34
931 1 32.535 152.36 4
932 1 33.74 150.273 3.34
933 1 28.92 154.447 4
934 1 30.125 156.534 3.34
935 1 32.535 156.534 4
936 1 33.74 154.447 3.34
937 1 28.92 158.621 4
938 1 30.125 160.708 3.34
939 1 32.535 160.708 4
940 1 33.74 158.621 3.34
941 1 28.92 162.795 4
942 1 30.125 164.883 3.34
943 1 32.535 164.883 4
944 1 33.74 162.795 3.34
945 1 28.92 166.97 4
946 1 30.125 169.057 3.34
947 1 32.535 169.057 4
948 1 33.74 166.97 3.34
949 1 28.92 171.144 4
950 1 30.125 173.231 3.34
951 1 32.535 173.231 4
952 1 33.74 171.144 3.34
953 1 28.92 175.318 4
954 1 30.125 177.405 3.34
955 1 32.535 177.405 4
956 1 33.74 175.318 3.34
957 1 28.92 179.492 4
958 1 30.125 181.58 3.34
959 1 32.535 181.58 4
960 1 33.74 179.492 3.34
961 1 28.92 183.667 4
962 1 30.125 185.754 3.34
963 1 32.535 185.754 4
964 1 33.74 183.667 3.34
965 1 28.92 187.841 4
966 1 30.125 189.928 3.34
967 1 32.535 189.928 4
968 1 33.74 187.841 3.34
969 1 28.92 192.015 4
970 1 30.125 194.102 3.34
971 1 32.535 194.102 4
972 1 33.74 192.015 3.34
973 1 28.92 196.189 4
974 1 30.125 198.277 3.34
975 1 32.535 198.277 4
976 1 33.74 196.189 3.34
977 1 28.92 200.364 4
978 1 30.125 202.451 3.34
979 1 32.535 202.451 4
980 1 33.74 200.364 3.34
981 1 36.15 0 4
982 1 37.355 2.08712 3.34
983 1 39.765 2.08712 4
984 1 40.97 0 3.34
985 1 36.15 4.17424 4
986 1 37.355 6.26136 3.34
987 1 39.765 6.26136 4
988 1 40.97 4.17424 3.34
989 1 36.15 8.34848 4
990 1 37.355 10.4356 3.34
991 1 39.765 10.4356 4
992 1 40.97 8.34848 3.34
993 1 36.15 12.5227 4
994 1 37.355 14.6098 3.34
995 1 39.765 14.6098 4
996 1 40.97 12.5227 3.34
997 1 36.15 16.697 4
998 1 37.355 18.7841 3.34
999 1 39.765 18.7841 4
1000 1 40.97 16.697 3.34
1001 1 36.15 20.8712 4
1002 1 37.355 22.9583 3.34
1003 1 39.765 22.9583 4
1004 1 40.97 20.8712 3.34
1005 1 36.15 25.0455 4
1006 1 37.355 27.1326 3.34
1007 1 39.765 27.1326 4
1008 1 40.97 25.0455 3.34
1009 1 36.15 29.2197 4
1010 1 37.355 31.3068 3.34
1011 1 39.765 31.3068 4
1012 1 40.97 29.2197 3.34
1013 1 36.15 33.3939 4
1014 1 37.355 35.4811 3.34
1015 1 39.765 35.4811 4
1016 1 40.97 33.3939 3.34
1017 1 36.15 37.5682 4
1018 1 37.355 39.6553 3.34
1019 1 39.765 39.6553 4
1020 1 40.97 37.5682 3.34
1021 1 36.15 41.7424 4
1022 1 37.355 43.8295 3.34
1023 1 39.765 43.8295 4
1024 1 40.97 41.7424 3.34
1025 1 36.15 45.9167 4
1026 1 37.355 48.0038 3.34
1027 1 39.765 48.0038 4
1028 1 40.97 45.9167 3.34
1029 1 36.15 50.0909 4
1030 1 37.355 52.178 3.34
1031 1 39.765 52.178 4
1032 1 40.97 50.0909 3.34
1033 1 36.15 54.2652 4
1034 1 37.355 56.3523 3.34
1035 1 39.765 56.3523 4
1036 1 40.97 54.2652 3.34
1037 1 36.15 58.4394 4
1038 1 37.355 60.5265 3.34
1039 1 39.765 60.5265 4
1040 1 40.97 58.4394 3.34
1041 1 36.15 62.6136 4
1042 1 37.355 64.7008 3.34
1043 1 39.765 64.7008 4
1044 1 40.97 62.6136 3.34
1045 1 36.15 66.7879 4
1046 1 37.355 68.875 3.34
1047 1 39.765 68.875 4
1048 1 40.97 66.7879 3.34
1049 1 36.15 70.9621 4
1050 1 37.355 73.0492 3.34
1051 1 39.765 73.0492 4
1052 1 40.97 70.9621 3.34
1053 1 36.15 75.1364 4
1054 1 37.355 77.2235 3.34
1055 1 39.765 77.2235 4
1056 1 40.97 75.1364 3.34
1057 1 36.15 79.3106 4
1058 1 37.355 81.3977 3.34
1059 1 39.765 81.3977 4
1060 1 40.97 79.3106 3.34
1061 1 36.15 83.4848 4
1062 1 37.355 85.572 3.34
1063 1 39.765 85.572 4
1064 1 40.97 83.4848 3.34
1065 1 36.15 87.6591 4
1066 1 37.355 89.7462 3.34
1067 1 39.765 89.7462 4
1068 1 40.97 87.6591 3.34
1069 1 36.15 91.8333 4
1070 1 37.355 93.9205 3.34
1071 1 39.765 93.9205 4
1072 1 40.97 91.8333 3.34
1073 1 36.15 96.0076 4
1074 1 37.355 98.0947 3.34
1075 1 39.765 98.0947 4
1076 1 40.97 96.0076 3.34
1077 1 36.15 100.182 4
1078 1 37.355 102.269 3.34
1079 1 39.765 102.269 4
1080 1 40.97 100.182 3.34
1081 1 36.15 104.356 4
1082 1 37.355 106.443 3.34
1083 1 39.765 106.443 4
1084 1 40.97 104.356 3.34
1085 1 36.15 108.53 4
1086 1 37.355 110.617 3.34
1087 1 39.765 110.617 4
1088 1 40.97 108.53 3.34
1089 1 36.15 112.705 4
1090 1 37.355 114.792 3.34
1091 1 39.765 114.792 4
1092 1 40.97 112.705 3.34
1093 1 36.15 116.879 4
1094 1 37.355 118.966 3.34
1095 1 39.765 118.966 4
1096 1 40.97 116.879 3.34
1097 1 36.15 121.053 4
1098 1 37.355 123.14 3.34
1099 1 39.765 123.14 4
1100 1 40.97 121.053 3.34
1101 1 36.15 125.227 4
1102 1 37.355 127.314 3.34
1103 1 39.765 127.314 4
1104 1 40.97 125.227 3.34
1105 1 36.15 129.402 4
1106 1 37.355 131.489 3.34
1107 1 39.765 131.489 4
1108 1 40.97 129.402 3.34
1109 1 36.15 133.576 4
1110 1 37.355 135.663 3.34
1111 1 39.765 135.663 4
1112 1 40.97 133.576 3.34
1113 1 36.15 137.75 4
1114 1 37.355 139.837 3.34
1115 1 39.765 139.837 4
1116 1 40.97 137.75 3.34
1117 1 36.15 141.924 4
1118 1 37.355 144.011 3.34
1119 1 39.765 144.011 4
1120 1 40.97 141.924 3.34
1121 1 36.15 146.098 4
1122 1 37.355 148.186 3.34
1123 1 39.765 148.186 4
1124 1 40.97 146.098 3.34
1125 1 36.15 150.273 4
1126 1 37.355 152.36 3.34
1127 1 39.765 152.36 4
1128 1 40.97 150.273 3.34
1129 1 36.15 154.447 4
1130 1 37.355 156.534 3.34
1131 1 39.765 156.534 4
1132 1 40.97 154.447 3.34
1133 1 36.15 158.621 4
1134 1 37.355 160.708 3.34
1135 1 39.765 160.708 4
1136 1 40.97 158.621 3.34
1137 1 36.15 162.795 4
1138 1 37.355 164.883 3.34
1139 1 39.765 164.883 4
1140 1 40.97 162.795 3.34
1141 1 36.15 166.97 4
1142 1 37.355 169.057 3.34
1143 1 39.765 169.057 4
1144 1 40.97 166.97 3.34
1145 1 36.15 171.144 4
1146 1 37.355 173.231 3.34
1147 1 39.765 173.231 4
1148 1 40.97 171.144 3.34
1149 1 36.15 175.318 4
1150 1 37.355 177.405 3.34
1151 1 39.765 177.405 4
1152 1 40.97 175.318 3.34
1153 1 36.15 179.492 4
1154 1 37.355 181.58 3.34
1155 1 39.765 181.58 4
1156 1 40.97 179.492 3.34
1157 1 36.15 183.667 4
1158 1 37.355 185.754 3.34
1159 1 39.765 185.754 4
1160 1 40.97 183.667 3.34
1161 1 36.15 187.841 4
1162 1 37.355 189.928 3.34
1163 1 39.765 189.928 4
1164 1 40.97 187.841 3.34
1165 1 36.15 192.015 4
1166 1 37.355 194.102 3.34
1167 1 39.765 194.102 4
1168 1 40.97 192.015 3.34
1169 1 36.15 196.189 4
1170 1 37.355 198.277 3.34
1171 1 39.765 198.277 4
1172 1 40.97 196.189 3.34
1173 1 36.15 200.364 4
1174 1 37.355 202.451 3.34
1175 1 39.765 202.451 4
1176 1 40.97 200.364 3.34
1177 1 43.38 0 4
1178 1 44.585 2.08712 3.34
1179 1 46.995 2.08712 4
1180 1 48.2 0 3.34
1181 1 43.38 4.17424 4
1182 1 44.585 6.26136 3.34
1183 1 46.995 6.26136 4
1184 1 48.2 4.17424 3.34
1185 1 43.38 8.34848 4
1186 1 44.585 10.4356 3.34
1187 1 46.995 10.4356 4
1188 1 48.2 8.34848 3.34
1189 1 43.38 12.5227 4
1190 1 44.585 14.6098 3.34
1191 1 46.995 14.6098 4
1192 1 48.2 12.5227 3.34
1193 1 43.38 16.697 4
1194 1 44.585 18.7841 3.34
1195 1 46.995 18.7841 4
1196 1 48.2 16.697 3.34
1197 1 43.38 20.8712 4
1198 1 44.585 22.9583 3.34
1199 1 46.995 22.9583 4
1200 1 48.2 20.8712 3.34
1201 1 43.38 25.0455 4
1202 1 44.585 27.1326 3.34
1203 1 46.995 27.1326 4
1204 1 48.2 25.0455 3.34
1205 1 43.38 29.2197 4
1206 1 44.585 31.3068 3.34
1207 1 46.995 31.3068 4
1208 1 48.2 29.2197 3.34
1209 1 43.38 33.3939 4
1210 1 44.585 35.4811 3.34
1211 1 46.995 35.4811 4
1212 1 48.2 33.3939 3.34
1213 1 43.38 37.5682 4
1214 1 44.585 39.6553 3.34
1215 1 46.995 39.6553 4
1216 1 48.2 37.5682 3.34
1217 1 43.38 41.7424 4
1218 1 44.585 43.8295 3.34
1219 1 46.995 43.8295 4
1220 1 48.2 41.7424 3.34
1221 1 43.38 45.9167 4
1222 1 44.585 48.0038 3.34
1223 1 46.995 48.0038 4
1224 1 48.2 45.9167 3.34
1225 1 43.38 50.0909 4
1226 1 44.585 52.178 3.34
1227 1 46.995 52.178 4
1228 1 48.2 50.0909 3.34
1229 1 43.38 54.2652 4
1230 1 44.585 56.3523 3.34
1231 1 46.995 56.3523 4
1232 1 48.2 54.2652 3.34
1233 1 43.38 58.4394 4
1234 1 44.585 60.5265 3.34
1235 1 46.995 60.5265 4
1236 1 48.2 58.4394 3.34
1237 1 43.38 62.6136 4
1238 1 44.585 64.7008 3.34
1239 1 46.995 64.7008 4
1240 1 48.2 62.6136 3.34
1241 1 43.38 66.7879 4
1242 1 44.585 68.875 3.34
1243 1 46.995 68.875 4
1244 1 48.2 66.7879 3.34
1245 1 43.38 70.9621 4
1246 1 44.585 73.0492 3.34
1247 1 46.995 73.0492 4
1248 1 48.2 70.9621 3.34
1249 1 43.38 75.1364 4
1250 1 44.585 77.2235 3.34
1251 1 46.995 77.2235 4
1252 1 48.2 75.1364 3.34
1253 1 43.38 79.3106 4
1254 1 44.585 81.3977 3.34
1255 1 46.995 81.3977 4
1256 1 48.2 79.3106 3.34
1257 1 43.38 83.4848 4
1258 1 44.585 85.572 3.34
1259 1 46.995 85.572 4
1260 1 48.2 83.4848 3.34
1261 1 43.38 87.6591 4
1262 1 44.585 89.7462 3.34
1263 1 46.995 89.7462 4
1264 1 48.2 87.6591 3.34