#germanene 10x10, a=2.56, lx=14, ly=24
2688 atoms

2 atom types

0 107.52 xlo xhi
0 106.417 ylo yhi
-60 60 zlo zhi

Masses

1 28.0855
2 28.0855

Atoms

1 1 0 0 2.56
2 1 1.28 2.21703 2.56
3 1 3.84 2.21703 2.56
4 1 5.12 0 2.56
5 1 0 4.43405 2.56
6 1 1.28 6.65108 2.56
7 1 3.84 6.65108 2.56
8 1 5.12 4.43405 2.56
9 1 0 8.8681 2.56
10 1 1.28 11.0851 2.56
11 1 3.84 11.0851 2.56
12 1 5.12 8.8681 2.56
13 1 0 13.3022 2.56
14 1 1.28 15.5192 2.56
15 1 3.84 15.5192 2.56
16 1 5.12 13.3022 2.56
17 1 0 17.7362 2.56
18 1 1.28 19.9532 2.56
19 1 3.84 19.9532 2.56
20 1 5.12 17.7362 2.56
21 1 0 22.1703 2.56
22 1 1.28 24.3873 2.56
23 1 3.84 24.3873 2.56
24 1 5.12 22.1703 2.56
25 1 0 26.6043 2.56
26 1 1.28 28.8213 2.56
27 1 3.84 28.8213 2.56
28 1 5.12 26.6043 2.56
29 1 0 31.0384 2.56
30 1 1.28 33.2554 2.56
31 1 3.84 33.2554 2.56
32 1 5.12 31.0384 2.56
33 1 0 35.4724 2.56
34 1 1.28 37.6894 2.56
35 1 3.84 37.6894 2.56
36 1 5.12 35.4724 2.56
37 1 0 39.9065 2.56
38 1 1.28 42.1235 2.56
39 1 3.84 42.1235 2.56
40 1 5.12 39.9065 2.56
41 1 0 44.3405 2.56
42 1 1.28 46.5575 2.56
43 1 3.84 46.5575 2.56
44 1 5.12 44.3405 2.56
45 1 0 48.7746 2.56
46 1 1.28 50.9916 2.56
47 1 3.84 50.9916 2.56
48 1 5.12 48.7746 2.56
49 1 0 53.2086 2.56
50 1 1.28 55.4256 2.56
51 1 3.84 55.4256 2.56
52 1 5.12 53.2086 2.56
53 1 0 57.6427 2.56
54 1 1.28 59.8597 2.56
55 1 3.84 59.8597 2.56
56 1 5.12 57.6427 2.56
57 1 0 62.0767 2.56
58 1 1.28 64.2937 2.56
59 1 3.84 64.2937 2.56
60 1 5.12 62.0767 2.56
61 1 0 66.5108 2.56
62 1 1.28 68.7278 2.56
63 1 3.84 68.7278 2.56
64 1 5.12 66.5108 2.56
65 1 0 70.9448 2.56
66 1 1.28 73.1618 2.56
67 1 3.84 73.1618 2.56
68 1 5.12 70.9448 2.56
69 1 0 75.3789 2.56
70 1 1.28 77.5959 2.56
71 1 3.84 77.5959 2.56
72 1 5.12 75.3789 2.56
73 1 0 79.8129 2.56
74 1 1.28 82.0299 2.56
75 1 3.84 82.0299 2.56
76 1 5.12 79.8129 2.56
77 1 0 84.247 2.56
78 1 1.28 86.464 2.56
79 1 3.84 86.464 2.56
80 1 5.12 84.247 2.56
81 1 0 88.681 2.56
82 1 1.28 90.898 2.56
83 1 3.84 90.898 2.56
84 1 5.12 88.681 2.56
85 1 0 93.1151 2.56
86 1 1.28 95.3321 2.56
87 1 3.84 95.3321 2.56
88 1 5.12 93.1151 2.56
89 1 0 97.5491 2.56
90 1 1.28 99.7661 2.56
91 1 3.84 99.7661 2.56
92 1 5.12 97.5491 2.56
93 1 0 101.983 2.56
94 1 1.28 104.2 2.56
95 1 3.84 104.2 2.56
96 1 5.12 101.983 2.56
97 1 7.68 0 2.56
98 1 8.96 2.21703 2.56
99 1 11.52 2.21703 2.56
100 1 12.8 0 2.56
101 1 7.68 4.43405 2.56
102 1 8.96 6.65108 2.56
103 1 11.52 6.65108 2.56
104 1 12.8 4.43405 2.56
105 1 7.68 8.8681 2.56
106 1 8.96 11.0851 2.56
107 1 11.52 11.0851 2.56
108 1 12.8 8.8681 2.56
109 1 7.68 13.3022 2.56
110 1 8.96 15.5192 2.56
111 1 11.52 15.5192 2.56
112 1 12.8 13.3022 2.56
113 1 7.68 17.7362 2.56
114 1 8.96 19.9532 2.56
115 1 11.52 19.9532 2.56
116 1 12.8 17.7362 2.56
117 1 7.68 22.1703 2.56
118 1 8.96 24.3873 2.56
119 1 11.52 24.3873 2.56
120 1 12.8 22.1703 2.56
121 1 7.68 26.6043 2.56
122 1 8.96 28.8213 2.56
123 1 11.52 28.8213 2.56
124 1 12.8 26.6043 2.56
125 1 7.68 31.0384 2.56
126 1 8.96 33.2554 2.56
127 1 11.52 33.2554 2.56
128 1 12.8 31.0384 2.56
129 1 7.68 35.4724 2.56
130 1 8.96 37.6894 2.56
131 1 11.52 37.6894 2.56
132 1 12.8 35.4724 2.56
133 1 7.68 39.9065 2.56
134 1 8.96 42.1235 2.56
135 1 11.52 42.1235 2.56
136 1 12.8 39.9065 2.56
137 1 7.68 44.3405 2.56
138 1 8.96 46.5575 2.56
139 1 11.52 46.5575 2.56
140 1 12.8 44.3405 2.56
141 1 7.68 48.7746 2.56
142 1 8.96 50.9916 2.56
143 1 11.52 50.9916 2.56
144 1 12.8 48.7746 2.56
145 1 7.68 53.2086 2.56
146 1 8.96 55.4256 2.56
147 1 11.52 55.4256 2.56
148 1 12.8 53.2086 2.56
149 1 7.68 57.6427 2.56
150 1 8.96 59.8597 2.56
151 1 11.52 59.8597 2.56
152 1 12.8 57.6427 2.56
153 1 7.68 62.0767 2.56
154 1 8.96 64.2937 2.56
155 1 11.52 64.2937 2.56
156 1 12.8 62.0767 2.56
157 1 7.68 66.5108 2.56
158 1 8.96 68.7278 2.56
159 1 11.52 68.7278 2.56
160 1 12.8 66.5108 2.56
161 1 7.68 70.9448 2.56
162 1 8.96 73.1618 2.56
163 1 11.52 73.1618 2.56
164 1 12.8 70.9448 2.56
165 1 7.68 75.3789 2.56
166 1 8.96 77.5959 2.56
167 1 11.52 77.5959 2.56
168 1 12.8 75.3789 2.56
169 1 7.68 79.8129 2.56
170 1 8.96 82.0299 2.56
171 1 11.52 82.0299 2.56
172 1 12.8 79.8129 2.56
173 1 7.68 84.247 2.56
174 1 8.96 86.464 2.56
175 1 11.52 86.464 2.56
176 1 12.8 84.247 2.56
177 1 7.68 88.681 2.56
178 1 8.96 90.898 2.56
179 1 11.52 90.898 2.56
180 1 12.8 88.681 2.56
181 1 7.68 93.1151 2.56
182 1 8.96 95.3321 2.56
183 1 11.52 95.3321 2.56
184 1 12.8 93.1151 2.56
185 1 7.68 97.5491 2.56
186 1 8.96 99.7661 2.56
187 1 11.52 99.7661 2.56
188 1 12.8 97.5491 2.56
189 1 7.68 101.983 2.56
190 1 8.96 104.2 2.56
191 1 11.52 104.2 2.56
192 1 12.8 101.983 2.56
193 1 15.36 0 2.56
194 1 16.64 2.21703 2.56
195 1 19.2 2.21703 2.56
196 1 20.48 0 2.56
197 1 15.36 4.43405 2.56
198 1 16.64 6.65108 2.56
199 1 19.2 6.65108 2.56
200 1 20.48 4.43405 2.56
201 1 15.36 8.8681 2.56
202 1 16.64 11.0851 2.56
203 1 19.2 11.0851 2.56
204 1 20.48 8.8681 2.56
205 1 15.36 13.3022 2.56
206 1 16.64 15.5192 2.56
207 1 19.2 15.5192 2.56
208 1 20.48 13.3022 2.56
209 1 15.36 17.7362 2.56
210 1 16.64 19.9532 2.56
211 1 19.2 19.9532 2.56
212 1 20.48 17.7362 2.56
213 1 15.36 22.1703 2.56
214 1 16.64 24.3873 2.56
215 1 19.2 24.3873 2.56
216 1 20.48 22.1703 2.56
217 1 15.36 26.6043 2.56
218 1 16.64 28.8213 2.56
219 1 19.2 28.8213 2.56
220 1 20.48 26.6043 2.56
221 1 15.36 31.0384 2.56
222 1 16.64 33.2554 2.56
223 1 19.2 33.2554 2.56
224 1 20.48 31.0384 2.56
225 1 15.36 35.4724 2.56
226 1 16.64 37.6894 2.56
227 1 19.2 37.6894 2.56
228 1 20.48 35.4724 2.56
229 1 15.36 39.9065 2.56
230 1 16.64 42.1235 2.56
231 1 19.2 42.1235 2.56
232 1 20.48 39.9065 2.56
233 1 15.36 44.3405 2.56
234 1 16.64 46.5575 2.56
235 1 19.2 46.5575 2.56
236 1 20.48 44.3405 2.56
237 1 15.36 48.7746 2.56
238 1 16.64 50.9916 2.56
239 1 19.2 50.9916 2.56
240 1 20.48 48.7746 2.56
241 1 15.36 53.2086 2.56
242 1 16.64 55.4256 2.56
243 1 19.2 55.4256 2.56
244 1 20.48 53.2086 2.56
245 1 15.36 57.6427 2.56
246 1 16.64 59.8597 2.56
247 1 19.2 59.8597 2.56
248 1 20.48 57.6427 2.56
249 1 15.36 62.0767 2.56
250 1 16.64 64.2937 2.56
251 1 19.2 64.2937 2.56
252 1 20.48 62.0767 2.56
253 1 15.36 66.5108 2.56
254 1 16.64 68.7278 2.56
255 1 19.2 68.7278 2.56
256 1 20.48 66.5108 2.56
257 1 15.36 70.9448 2.56
258 1 16.64 73.1618 2.56
259 1 19.2 73.1618 2.56
260 1 20.48 70.9448 2.56
261 1 15.36 75.3789 2.56
262 1 16.64 77.5959 2.56
263 1 19.2 77.5959 2.56
264 1 20.48 75.3789 2.56
265 1 15.36 79.8129 2.56
266 1 16.64 82.0299 2.56
267 1 19.2 82.0299 2.56
268 1 20.48 79.8129 2.56
269 1 15.36 84.247 2.56
270 1 16.64 86.464 2.56
271 1 19.2 86.464 2.56
272 1 20.48 84.247 2.56
273 1 15.36 88.681 2.56
274 1 16.64 90.898 2.56
275 1 19.2 90.898 2.56
276 1 20.48 88.681 2.56
277 1 15.36 93.1151 2.56
278 1 16.64 95.3321 2.56
279 1 19.2 95.3321 2.56
280 1 20.48 93.1151 2.56
281 1 15.36 97.5491 2.56
282 1 16.64 99.7661 2.56
283 1 19.2 99.7661 2.56
284 1 20.48 97.5491 2.56
285 1 15.36 101.983 2.56
286 1 16.64 104.2 2.56
287 1 19.2 104.2 2.56
288 1 20.48 101.983 2.56
289 1 23.04 0 2.56
290 1 24.32 2.21703 2.56
291 1 26.88 2.21703 2.56
292 1 28.16 0 2.56
293 1 23.04 4.43405 2.56
294 1 24.32 6.65108 2.56
295 1 26.88 6.65108 2.56
296 1 28.16 4.43405 2.56
297 1 23.04 8.8681 2.56
298 1 24.32 11.0851 2.56
299 1 26.88 11.0851 2.56
300 1 28.16 8.8681 2.56
301 1 23.04 13.3022 2.56
302 1 24.32 15.5192 2.56
303 1 26.88 15.5192 2.56
304 1 28.16 13.3022 2.56
305 1 23.04 17.7362 2.56
306 1 24.32 19.9532 2.56
307 1 26.88 19.9532 2.56
308 1 28.16 17.7362 2.56
309 1 23.04 22.1703 2.56
310 1 24.32 24.3873 2.56
311 1 26.88 24.3873 2.56
312 1 28.16 22.1703 2.56
313 1 23.04 26.6043 2.56
314 1 24.32 28.8213 2.56
315 1 26.88 28.8213 2.56
316 1 28.16 26.6043 2.56
317 1 23.04 31.0384 2.56
318 1 24.32 33.2554 2.56
319 1 26.88 33.2554 2.56
320 1 28.16 31.0384 2.56
321 1 23.04 35.4724 2.56
322 1 24.32 37.6894 2.56
323 1 26.88 37.6894 2.56
324 1 28.16 35.4724 2.56
325 1 23.04 39.9065 2.56
326 1 24.32 42.1235 2.56
327 1 26.88 42.1235 2.56
328 1 28.16 39.9065 2.56
329 1 23.04 44.3405 2.56
330 1 24.32 46.5575 2.56
331 1 26.88 46.5575 2.56
332 1 28.16 44.3405 2.56
333 1 23.04 48.7746 2.56
334 1 24.32 50.9916 2.56
335 1 26.88 50.9916 2.56
336 1 28.16 48.7746 2.56
337 1 23.04 53.2086 2.56
338 1 24.32 55.4256 2.56
339 1 26.88 55.4256 2.56
340 1 28.16 53.2086 2.56
341 1 23.04 57.6427 2.56
342 1 24.32 59.8597 2.56
343 1 26.88 59.8597 2.56
344 1 28.16 57.6427 2.56
345 1 23.04 62.0767 2.56
346 1 24.32 64.2937 2.56
347 1 26.88 64.2937 2.56
348 1 28.16 62.0767 2.56
349 1 23.04 66.5108 2.56
350 1 24.32 68.7278 2.56
351 1 26.88 68.7278 2.56
352 1 28.16 66.5108 2.56
353 1 23.04 70.9448 2.56
354 1 24.32 73.1618 2.56
355 1 26.88 73.1618 2.56
356 1 28.16 70.9448 2.56
357 1 23.04 75.3789 2.56
358 1 24.32 77.5959 2.56
359 1 26.88 77.5959 2.56
360 1 28.16 75.3789 2.56
361 1 23.04 79.8129 2.56
362 1 24.32 82.0299 2.56
363 1 26.88 82.0299 2.56
364 1 28.16 79.8129 2.56
365 1 23.04 84.247 2.56
366 1 24.32 86.464 2.56
367 1 26.88 86.464 2.56
368 1 28.16 84.247 2.56
369 1 23.04 88.681 2.56
370 1 24.32 90.898 2.56
371 1 26.88 90.898 2.56
372 1 28.16 88.681 2.56
373 1 23.04 93.1151 2.56
374 1 24.32 95.3321 2.56
375 1 26.88 95.3321 2.56
376 1 28.16 93.1151 2.56
377 1 23.04 97.5491 2.56
378 1 24.32 99.7661 2.56
379 1 26.88 99.7661 2.56
380 1 28.16 97.5491 2.56
381 1 23.04 101.983 2.56
382 1 24.32 104.2 2.56
383 1 26.88 104.2 2.56
384 1 28.16 101.983 2.56
385 1 30.72 0 2.56
386 1 32 2.21703 2.56
387 1 34.56 2.21703 2.56
388 1 35.84 0 2.56
389 1 30.72 4.43405 2.56
390 1 32 6.65108 2.56
391 1 34.56 6.65108 2.56
392 1 35.84 4.43405 2.56
393 1 30.72 8.8681 2.56
394 1 32 11.0851 2.56
395 1 34.56 11.0851 2.56
396 1 35.84 8.8681 2.56
397 1 30.72 13.3022 2.56
398 1 32 15.5192 2.56
399 1 34.56 15.5192 2.56
400 1 35.84 13.3022 2.56
401 1 30.72 17.7362 2.56
402 1 32 19.9532 2.56
403 1 34.56 19.9532 2.56
404 1 35.84 17.7362 2.56
405 1 30.72 22.1703 2.56
406 1 32 24.3873 2.56
407 1 34.56 24.3873 2.56
408 1 35.84 22.1703 2.56
409 1 30.72 26.6043 2.56
410 1 32 28.8213 2.56
411 1 34.56 28.8213 2.56
412 1 35.84 26.6043 2.56
413 1 30.72 31.0384 2.56
414 1 32 33.2554 2.56
415 1 34.56 33.2554 2.56
416 1 35.84 31.0384 2.56
417 1 30.72 35.4724 2.56
418 1 32 37.6894 2.56
419 1 34.56 37.6894 2.56
420 1 35.84 35.4724 2.56
421 1 30.72 39.9065 2.56
422 1 32 42.1235 2.56
423 1 34.56 42.1235 2.56
424 1 35.84 39.9065 2.56
425 1 30.72 44.3405 2.56
426 1 32 46.5575 2.56
427 1 34.56 46.5575 2.56
428 1 35.84 44.3405 2.56
429 1 30.72 48.7746 2.56
430 1 32 50.9916 2.56
431 1 34.56 50.9916 2.56
432 1 35.84 48.7746 2.56
433 1 30.72 53.2086 2.56
434 1 32 55.4256 2.56
435 1 34.56 55.4256 2.56
436 1 35.84 53.2086 2.56
437 1 30.72 57.6427 2.56
438 1 32 59.8597 2.56
439 1 34.56 59.8597 2.56
440 1 35.84 57.6427 2.56
441 1 30.72 62.0767 2.56
442 1 32 64.2937 2.56
443 1 34.56 64.2937 2.56
444 1 35.84 62.0767 2.56
445 1 30.72 66.5108 2.56
446 1 32 68.7278 2.56
447 1 34.56 68.7278 2.56
448 1 35.84 66.5108 2.56
449 1 30.72 70.9448 2.56
450 1 32 73.1618 2.56
451 1 34.56 73.1618 2.56
452 1 35.84 70.9448 2.56
453 1 30.72 75.3789 2.56
454 1 32 77.5959 2.56
455 1 34.56 77.5959 2.56
456 1 35.84 75.3789 2.56
457 1 30.72 79.8129 2.56
458 1 32 82.0299 2.56
459 1 34.56 82.0299 2.56
460 1 35.84 79.8129 2.56
461 1 30.72 84.247 2.56
462 1 32 86.464 2.56
463 1 34.56 86.464 2.56
464 1 35.84 84.247 2.56
465 1 30.72 88.681 2.56
466 1 32 90.898 2.56
467 1 34.56 90.898 2.56
468 1 35.84 88.681 2.56
469 1 30.72 93.1151 2.56
470 1 32 95.3321 2.56
471 1 34.56 95.3321 2.56
472 1 35.84 93.1151 2.56
473 1 30.72 97.5491 2.56
474 1 32 99.7661 2.56
475 1 34.56 99.7661 2.56
476 1 35.84 97.5491 2.56
477 1 30.72 101.983 2.56
478 1 32 104.2 2.56
479 1 34.56 104.2 2.56
480 1 35.84 101.983 2.56
481 1 38.4 0 2.56
482 1 39.68 2.21703 2.56
483 1 42.24 2.21703 2.56
484 1 43.52 0 2.56
485 1 38.4 4.43405 2.56
486 1 39.68 6.65108 2.56
487 1 42.24 6.65108 2.56
488 1 43.52 4.43405 2.56
489 1 38.4 8.8681 2.56
490 1 39.68 11.0851 2.56
491 1 42.24 11.0851 2.56
492 1 43.52 8.8681 2.56
493 1 38.4 13.3022 2.56
494 1 39.68 15.5192 2.56
495 1 42.24 15.5192 2.56
496 1 43.52 13.3022 2.56
497 1 38.4 17.7362 2.56
498 1 39.68 19.9532 2.56
499 1 42.24 19.9532 2.56
500 1 43.52 17.7362 2.56
501 1 38.4 22.1703 2.56
502 1 39.68 24.3873 2.56
503 1 42.24 24.3873 2.56
504 1 43.52 22.1703 2.56
505 1 38.4 26.6043 2.56
506 1 39.68 28.8213 2.56
507 1 42.24 28.8213 2.56
508 1 43.52 26.6043 2.56
509 1 38.4 31.0384 2.56
510 1 39.68 33.2554 2.56
511 1 42.24 33.2554 2.56
512 1 43.52 31.0384 2.56
513 1 38.4 35.4724 2.56
514 1 39.68 37.6894 2.56
515 1 42.24 37.6894 2.56
516 1 43.52 35.4724 2.56
517 1 38.4 39.9065 2.56
518 1 39.68 42.1235 2.56
519 1 42.24 42.1235 2.56
520 1 43.52 39.9065 2.56
521 1 38.4 44.3405 2.56
522 1 39.68 46.5575 2.56
523 1 42.24 46.5575 2.56
524 1 43.52 44.3405 2.56
525 1 38.4 48.7746 2.56
526 1 39.68 50.9916 2.56
527 1 42.24 50.9916 2.56
528 1 43.52 48.7746 2.56
529 1 38.4 53.2086 2.56
530 1 39.68 55.4256 2.56
531 1 42.24 55.4256 2.56
532 1 43.52 53.2086 2.56
533 1 38.4 57.6427 2.56
534 1 39.68 59.8597 2.56
535 1 42.24 59.8597 2.56
536 1 43.52 57.6427 2.56
537 1 38.4 62.0767 2.56
538 1 39.68 64.2937 2.56
539 1 42.24 64.2937 2.56
540 1 43.52 62.0767 2.56
541 1 38.4 66.5108 2.56
542 1 39.68 68.7278 2.56
543 1 42.24 68.7278 2.56
544 1 43.52 66.5108 2.56
545 1 38.4 70.9448 2.56
546 1 39.68 73.1618 2.56
547 1 42.24 73.1618 2.56
548 1 43.52 70.9448 2.56
549 1 38.4 75.3789 2.56
550 1 39.68 77.5959 2.56
551 1 42.24 77.5959 2.56
552 1 43.52 75.3789 2.56
553 1 38.4 79.8129 2.56
554 1 39.68 82.0299 2.56
555 1 42.24 82.0299 2.56
556 1 43.52 79.8129 2.56
557 1 38.4 84.247 2.56
558 1 39.68 86.464 2.56
559 1 42.24 86.464 2.56
560 1 43.52 84.247 2.56
561 1 38.4 88.681 2.56
562 1 39.68 90.898 2.56
563 1 42.24 90.898 2.56
564 1 43.52 88.681 2.56
565 1 38.4 93.1151 2.56
566 1 39.68 95.3321 2.56
567 1 42.24 95.3321 2.56
568 1 43.52 93.1151 2.56
569 1 38.4 97.5491 2.56
570 1 39.68 99.7661 2.56
571 1 42.24 99.7661 2.56
572 1 43.52 97.5491 2.56
573 1 38.4 101.983 2.56
574 1 39.68 104.2 2.56
575 1 42.24 104.2 2.56
576 1 43.52 101.983 2.56
577 1 46.08 0 2.56
578 1 47.36 2.21703 2.56
579 1 49.92 2.21703 2.56
580 1 51.2 0 2.56
581 1 46.08 4.43405 2.56
582 1 47.36 6.65108 2.56
583 1 49.92 6.65108 2.56
584 1 51.2 4.43405 2.56
585 1 46.08 8.8681 2.56
586 1 47.36 11.0851 2.56
587 1 49.92 11.0851 2.56
588 1 51.2 8.8681 2.56
589 1 46.08 13.3022 2.56
590 1 47.36 15.5192 2.56
591 1 49.92 15.5192 2.56
592 1 51.2 13.3022 2.56
593 1 46.08 17.7362 2.56
594 1 47.36 19.9532 2.56
595 1 49.92 19.9532 2.56
596 1 51.2 17.7362 2.56
597 1 46.08 22.1703 2.56
598 1 47.36 24.3873 2.56
599 1 49.92 24.3873 2.56
600 1 51.2 22.1703 2.56
601 1 46.08 26.6043 2.56
602 1 47.36 28.8213 2.56
603 1 49.92 28.8213 2.56
604 1 51.2 26.6043 2.56
605 1 46.08 31.0384 2.56
606 1 47.36 33.2554 2.56
607 1 49.92 33.2554 2.56
608 1 51.2 31.0384 2.56
609 1 46.08 35.4724 2.56
610 1 47.36 37.6894 2.56
611 1 49.92 37.6894 2.56
612 1 51.2 35.4724 2.56
613 1 46.08 39.9065 2.56
614 1 47.36 42.1235 2.56
615 1 49.92 42.1235 2.56
616 1 51.2 39.9065 2.56
617 1 46.08 44.3405 2.56
618 1 47.36 46.5575 2.56
619 1 49.92 46.5575 2.56
620 1 51.2 44.3405 2.56
621 1 46.08 48.7746 2.56
622 1 47.36 50.9916 2.56
623 1 49.92 50.9916 2.56
624 1 51.2 48.7746 2.56
625 1 46.08 53.2086 2.56
626 1 47.36 55.4256 2.56
627 1 49.92 55.4256 2.56
628 1 51.2 53.2086 2.56
629 1 46.08 57.6427 2.56
630 1 47.36 59.8597 2.56
631 1 49.92 59.8597 2.56
632 1 51.2 57.6427 2.56
633 1 46.08 62.0767 2.56
634 1 47.36 64.2937 2.56
635 1 49.92 64.2937 2.56
636 1 51.2 62.0767 2.56
637 1 46.08 66.5108 2.56
638 1 47.36 68.7278 2.56
639 1 49.92 68.7278 2.56
640 1 51.2 66.5108 2.56
641 1 46.08 70.9448 2.56
642 1 47.36 73.1618 2.56
643 1 49.92 73.1618 2.56
644 1 51.2 70.9448 2.56
645 1 46.08 75.3789 2.56
646 1 47.36 77.5959 2.56
647 1 49.92 77.5959 2.56
648 1 51.2 75.3789 2.56
649 1 46.08 79.8129 2.56
650 1 47.36 82.0299 2.56
651 1 49.92 82.0299 2.56
652 1 51.2 79.8129 2.56
653 1 46.08 84.247 2.56
654 1 47.36 86.464 2.56
655 1 49.92 86.464 2.56
656 1 51.2 84.247 2.56
657 1 46.08 88.681 2.56
658 1 47.36 90.898 2.56
659 1 49.92 90.898 2.56
660 1 51.2 88.681 2.56
661 1 46.08 93.1151 2.56
662 1 47.36 95.3321 2.56
663 1 49.92 95.3321 2.56
664 1 51.2 93.1151 2.56
665 1 46.08 97.5491 2.56
666 1 47.36 99.7661 2.56
667 1 49.92 99.7661 2.56
668 1 51.2 97.5491 2.56
669 1 46.08 101.983 2.56
670 1 47.36 104.2 2.56
671 1 49.92 104.2 2.56
672 1 51.2 101.983 2.56
673 1 53.76 0 2.56
674 1 55.04 2.21703 2.56
675 1 57.6 2.21703 2.56
676 1 58.88 0 2.56
677 1 53.76 4.43405 2.56
678 1 55.04 6.65108 2.56
679 1 57.6 6.65108 2.56
680 1 58.88 4.43405 2.56
681 1 53.76 8.8681 2.56
682 1 55.04 11.0851 2.56
683 1 57.6 11.0851 2.56
684 1 58.88 8.8681 2.56
685 1 53.76 13.3022 2.56
686 1 55.04 15.5192 2.56
687 1 57.6 15.5192 2.56
688 1 58.88 13.3022 2.56
689 1 53.76 17.7362 2.56
690 1 55.04 19.9532 2.56
691 1 57.6 19.9532 2.56
692 1 58.88 17.7362 2.56
693 1 53.76 22.1703 2.56
694 1 55.04 24.3873 2.56
695 1 57.6 24.3873 2.56
696 1 58.88 22.1703 2.56
697 1 53.76 26.6043 2.56
698 1 55.04 28.8213 2.56
699 1 57.6 28.8213 2.56
700 1 58.88 26.6043 2.56
701 1 53.76 31.0384 2.56
702 1 55.04 33.2554 2.56
703 1 57.6 33.2554 2.56
704 1 58.88 31.0384 2.56
705 1 53.76 35.4724 2.56
706 1 55.04 37.6894 2.56
707 1 57.6 37.6894 2.56
708 1 58.88 35.4724 2.56
709 1 53.76 39.9065 2.56
710 1 55.04 42.1235 2.56
711 1 57.6 42.1235 2.56
712 1 58.88 39.9065 2.56
713 1 53.76 44.3405 2.56
714 1 55.04 46.5575 2.56
715 1 57.6 46.5575 2.56
716 1 58.88 44.3405 2.56
717 1 53.76 48.7746 2.56
718 1 55.04 50.9916 2.56
719 1 57.6 50.9916 2.56
720 1 58.88 48.7746 2.56
721 1 53.76 53.2086 2.56
722 1 55.04 55.4256 2.56
723 1 57.6 55.4256 2.56
724 1 58.88 53.2086 2.56
725 1 53.76 57.6427 2.56
726 1 55.04 59.8597 2.56
727 1 57.6 59.8597 2.56
728 1 58.88 57.6427 2.56
729 1 53.76 62.0767 2.56
730 1 55.04 64.2937 2.56
731 1 57.6 64.2937 2.56
732 1 58.88 62.0767 2.56
733 1 53.76 66.5108 2.56
734 1 55.04 68.7278 2.56
735 1 57.6 68.7278 2.56
736 1 58.88 66.5108 2.56
737 1 53.76 70.9448 2.56
738 1 55.04 73.1618 2.56
739 1 57.6 73.1618 2.56
740 1 58.88 70.9448 2.56
741 1 53.76 75.3789 2.56
742 1 55.04 77.5959 2.56
743 1 57.6 77.5959 2.56
744 1 58.88 75.3789 2.56
745 1 53.76 79.8129 2.56
746 1 55.04 82.0299 2.56
747 1 57.6 82.0299 2.56
748 1 58.88 79.8129 2.56
749 1 53.76 84.247 2.56
750 1 55.04 86.464 2.56
751 1 57.6 86.464 2.56
752 1 58.88 84.247 2.56
753 1 53.76 88.681 2.56
754 1 55.04 90.898 2.56
755 1 57.6 90.898 2.56
756 1 58.88 88.681 2.56
757 1 53.76 93.1151 2.56
758 1 55.04 95.3321 2.56
759 1 57.6 95.3321 2.56
760 1 58.88 93.1151 2.56
761 1 53.76 97.5491 2.56
762 1 55.04 99.7661 2.56
763 1 57.6 99.7661 2.56
764 1 58.88 97.5491 2.56
765 1 53.76 101.983 2.56
766 1 55.04 104.2 2.56
767 1 57.6 104.2 2.56
768 1 58.88 101.983 2.56
769 1 61.44 0 2.56
770 1 62.72 2.21703 2.56
771 1 65.28 2.21703 2.56
772 1 66.56 0 2.56
773 1 61.44 4.43405 2.56
774 1 62.72 6.65108 2.56
775 1 65.28 6.65108 2.56
776 1 66.56 4.43405 2.56
777 1 61.44 8.8681 2.56
778 1 62.72 11.0851 2.56
779 1 65.28 11.0851 2.56
780 1 66.56 8.8681 2.56
781 1 61.44 13.3022 2.56
782 1 62.72 15.5192 2.56
783 1 65.28 15.5192 2.56
784 1 66.56 13.3022 2.56
785 1 61.44 17.7362 2.56
786 1 62.72 19.9532 2.56
787 1 65.28 19.9532 2.56
788 1 66.56 17.7362 2.56
789 1 61.44 22.1703 2.56
790 1 62.72 24.3873 2.56
791 1 65.28 24.3873 2.56
792 1 66.56 22.1703 2.56
793 1 61.44 26.6043 2.56
794 1 62.72 28.8213 2.56
795 1 65.28 28.8213 2.56
796 1 66.56 26.6043 2.56
797 1 61.44 31.0384 2.56
798 1 62.72 33.2554 2.56
799 1 65.28 33.2554 2.56
800 1 66.56 31.0384 2.56
801 1 61.44 35.4724 2.56
802 1 62.72 37.6894 2.56
803 1 65.28 37.6894 2.56
804 1 66.56 35.4724 2.56
805 1 61.44 39.9065 2.56
806 1 62.72 42.1235 2.56
807 1 65.28 42.1235 2.56
808 1 66.56 39.9065 2.56
809 1 61.44 44.3405 2.56
810 1 62.72 46.5575 2.56
811 1 65.28 46.5575 2.56
812 1 66.56 44.3405 2.56
813 1 61.44 48.7746 2.56
814 1 62.72 50.9916 2.56
815 1 65.28 50.9916 2.56
816 1 66.56 48.7746 2.56
817 1 61.44 53.2086 2.56
818 1 62.72 55.4256 2.56
819 1 65.28 55.4256 2.56
820 1 66.56 53.2086 2.56
821 1 61.44 57.6427 2.56
822 1 62.72 59.8597 2.56
823 1 65.28 59.8597 2.56
824 1 66.56 57.6427 2.56
825 1 61.44 62.0767 2.56
826 1 62.72 64.2937 2.56
827 1 65.28 64.2937 2.56
828 1 66.56 62.0767 2.56
829 1 61.44 66.5108 2.56
830 1 62.72 68.7278 2.56
831 1 65.28 68.7278 2.56
832 1 66.56 66.5108 2.56
833 1 61.44 70.9448 2.56
834 1 62.72 73.1618 2.56
835 1 65.28 73.1618 2.56
836 1 66.56 70.9448 2.56
837 1 61.44 75.3789 2.56
838 1 62.72 77.5959 2.56
839 1 65.28 77.5959 2.56
840 1 66.56 75.3789 2.56
841 1 61.44 79.8129 2.56
842 1 62.72 82.0299 2.56
843 1 65.28 82.0299 2.56
844 1 66.56 79.8129 2.56
845 1 61.44 84.247 2.56
846 1 62.72 86.464 2.56
847 1 65.28 86.464 2.56
848 1 66.56 84.247 2.56
849 1 61.44 88.681 2.56
850 1 62.72 90.898 2.56
851 1 65.28 90.898 2.56
852 1 66.56 88.681 2.56
853 1 61.44 93.1151 2.56
854 1 62.72 95.3321 2.56
855 1 65.28 95.3321 2.56
856 1 66.56 93.1151 2.56
857 1 61.44 97.5491 2.56
858 1 62.72 99.7661 2.56
859 1 65.28 99.7661 2.56
860 1 66.56 97.5491 2.56
861 1 61.44 101.983 2.56
862 1 62.72 104.2 2.56
863 1 65.28 104.2 2.56
864 1 66.56 101.983 2.56
865 1 69.12 0 2.56
866 1 70.4 2.21703 2.56
867 1 72.96 2.21703 2.56
868 1 74.24 0 2.56
869 1 69.12 4.43405 2.56
870 1 70.4 6.65108 2.56
871 1 72.96 6.65108 2.56
872 1 74.24 4.43405 2.56
873 1 69.12 8.8681 2.56
874 1 70.4 11.0851 2.56
875 1 72.96 11.0851 2.56
876 1 74.24 8.8681 2.56
877 1 69.12 13.3022 2.56
878 1 70.4 15.5192 2.56
879 1 72.96 15.5192 2.56
880 1 74.24 13.3022 2.56
881 1 69.12 17.7362 2.56
882 1 70.4 19.9532 2.56
883 1 72.96 19.9532 2.56
884 1 74.24 17.7362 2.56
885 1 69.12 22.1703 2.56
886 1 70.4 24.3873 2.56
887 1 72.96 24.3873 2.56
888 1 74.24 22.1703 2.56
889 1 69.12 26.6043 2.56
890 1 70.4 28.8213 2.56
891 1 72.96 28.8213 2.56
892 1 74.24 26.6043 2.56
893 1 69.12 31.0384 2.56
894 1 70.4 33.2554 2.56
895 1 72.96 33.2554 2.56
896 1 74.24 31.0384 2.56
897 1 69.12 35.4724 2.56
898 1 70.4 37.6894 2.56
899 1 72.96 37.6894 2.56
900 1 74.24 35.4724 2.56
901 1 69.12 39.9065 2.56
902 1 70.4 42.1235 2.56
903 1 72.96 42.1235 2.56
904 1 74.24 39.9065 2.56
905 1 69.12 44.3405 2.56
906 1 70.4 46.5575 2.56
907 1 72.96 46.5575 2.56
908 1 74.24 44.3405 2.56
909 1 69.12 48.7746 2.56
910 1 70.4 50.9916 2.56
911 1 72.96 50.9916 2.56
912 1 74.24 48.7746 2.56
913 1 69.12 53.2086 2.56
914 1 70.4 55.4256 2.56
915 1 72.96 55.4256 2.56
916 1 74.24 53.2086 2.56
917 1 69.12 57.6427 2.56
918 1 70.4 59.8597 2.56
919 1 72.96 59.8597 2.56
920 1 74.24 57.6427 2.56
921 1 69.12 62.0767 2.56
922 1 70.4 64.2937 2.56
923 1 72.96 64.2937 2.56
924 1 74.24 62.0767 2.56
925 1 69.12 66.5108 2.56
926 1 70.4 68.7278 2.56
927 1 72.96 68.7278 2.56
928 1 74.24 66.5108 2.56
929 1 69.12 70.9448 2.56
930 1 70.4 73.1618 2.56
931 1 72.96 73.1618 2.56
932 1 74.24 70.9448 2.56
933 1 69.12 75.3789 2.56
934 1 70.4 77.5959 2.56
935 1 72.96 77.5959 2.56
936 1 74.24 75.3789 2.56
937 1 69.12 79.8129 2.56
938 1 70.4 82.0299 2.56
939 1 72.96 82.0299 2.56
940 1 74.24 79.8129 2.56
941 1 69.12 84.247 2.56
942 1 70.4 86.464 2.56
943 1 72.96 86.464 2.56
944 1 74.24 84.247 2.56
945 1 69.12 88.681 2.56
946 1 70.4 90.898 2.56
947 1 72.96 90.898 2.56
948 1 74.24 88.681 2.56
949 1 69.12 93.1151 2.56
950 1 70.4 95.3321 2.56
951 1 72.96 95.3321 2.56
952 1 74.24 93.1151 2.56
953 1 69.12 97.5491 2.56
954 1 70.4 99.7661 2.56
955 1 72.96 99.7661 2.56
956 1 74.24 97.5491 2.56
957 1 69.12 101.983 2.56
958 1 70.4 104.2 2.56
959 1 72.96 104.2 2.56
960 1 74.24 101.983 2.56
961 1 76.8 0 2.56
962 1 78.08 2.21703 2.56
963 1 80.64 2.21703 2.56
964 1 81.92 0 2.56
965 1 76.8 4.43405 2.56
966 1 78.08 6.65108 2.56
967 1 80.64 6.65108 2.56
968 1 81.92 4.43405 2.56
969 1 76.8 8.8681 2.56
970 1 78.08 11.0851 2.56
971 1 80.64 11.0851 2.56
972 1 81.92 8.8681 2.56
973 1 76.8 13.3022 2.56
974 1 78.08 15.5192 2.56
975 1 80.64 15.5192 2.56
976 1 81.92 13.3022 2.56
977 1 76.8 17.7362 2.56
978 1 78.08 19.9532 2.56
979 1 80.64 19.9532 2.56
980 1 81.92 17.7362 2.56
981 1 76.8 22.1703 2.56
982 1 78.08 24.3873 2.56
983 1 80.64 24.3873 2.56
984 1 81.92 22.1703 2.56
985 1 76.8 26.6043 2.56
986 1 78.08 28.8213 2.56
987 1 80.64 28.8213 2.56
988 1 81.92 26.6043 2.56
989 1 76.8 31.0384 2.56
990 1 78.08 33.2554 2.56
991 1 80.64 33.2554 2.56
992 1 81.92 31.0384 2.56
993 1 76.8 35.4724 2.56
994 1 78.08 37.6894 2.56
995 1 80.64 37.6894 2.56
996 1 81.92 35.4724 2.56
997 1 76.8 39.9065 2.56
998 1 78.08 42.1235 2.56
999 1 80.64 42.1235 2.56
1000 1 81.92 39.9065 2.56
1001 1 76.8 44.3405 2.56
1002 1 78.08 46.5575 2.56
1003 1 80.64 46.5575 2.56
1004 1 81.92 44.3405 2.56
1005 1 76.8 48.7746 2.56
1006 1 78.08 50.9916 2.56
1007 1 80.64 50.9916 2.56
1008 1 81.92 48.7746 2.56
1009 1 76.8 53.2086 2.56
1010 1 78.08 55.4256 2.56
1011 1 80.64 55.4256 2.56
1012 1 81.92 53.2086 2.56
1013 1 76.8 57.6427 2.56
1014 1 78.08 59.8597 2.56
1015 1 80.64 59.8597 2.56
1016 1 81.92 57.6427 2.56
1017 1 76.8 62.0767 2.56
1018 1 78.08 64.2937 2.56
1019 1 80.64 64.2937 2.56
1020 1 81.92 62.0767 2.56
1021 1 76.8 66.5108 2.56
1022 1 78.08 68.7278 2.56
1023 1 80.64 68.7278 2.56
1024 1 81.92 66.5108 2.56
1025 1 76.8 70.9448 2.56
1026 1 78.08 73.1618 2.56
1027 1 80.64 73.1618 2.56
1028 1 81.92 70.9448 2.56
1029 1 76.8 75.3789 2.56
1030 1 78.08 77.5959 2.56
1031 1 80.64 77.5959 2.56
1032 1 81.92 75.3789 2.56
1033 1 76.8 79.8129 2.56
1034 1 78.08 82.0299 2.56
1035 1 80.64 82.0299 2.56
1036 1 81.92 79.8129 2.56
1037 1 76.8 84.247 2.56
1038 1 78.08 86.464 2.56
1039 1 80.64 86.464 2.56
1040 1 81.92 84.247 2.56
1041 1 76.8 88.681 2.56
1042 1 78.08 90.898 2.56
1043 1 80.64 90.898 2.56
1044 1 81.92 88.681 2.56
1045 1 76.8 93.1151 2.56
1046 1 78.08 95.3321 2.56
1047 1 80.64 95.3321 2.56
1048 1 81.92 93.1151 2.56
1049 1 76.8 97.5491 2.56
1050 1 78.08 99.7661 2.56
1051 1 80.64 99.7661 2.56
1052 1 81.92 97.5491 2.56
1053 1 76.8 101.983 2.56
1054 1 78.08 104.2 2.56
1055 1 80.64 104.2 2.56
1056 1 81.92 101.983 2.56
1057 1 84.48 0 2.56
1058 1 85.76 2.21703 2.56
1059 1 88.32 2.21703 2.56
1060 1 89.6 0 2.56
1061 1 84.48 4.43405 2.56
1062 1 85.76 6.65108 2.56
1063 1 88.32 6.65108 2.56
1064 1 89.6 4.43405 2.56
1065 1 84.48 8.8681 2.56
1066 1 85.76 11.0851 2.56
1067 1 88.32 11.0851 2.56
1068 1 89.6 8.8681 2.56
1069 1 84.48 13.3022 2.56
1070 1 85.76 15.5192 2.56
1071 1 88.32 15.5192 2.56
1072 1 89.6 13.3022 2.56
1073 1 84.48 17.7362 2.56
1074 1 85.76 19.9532 2.56
1075 1 88.32 19.9532 2.56
1076 1 89.6 17.7362 2.56
1077 1 84.48 22.1703 2.56
1078 1 85.76 24.3873 2.56
1079 1 88.32 24.3873 2.56
1080 1 89.6 22.1703 2.56
1081 1 84.48 26.6043 2.56
1082 1 85.76 28.8213 2.56
1083 1 88.32 28.8213 2.56
1084 1 89.6 26.6043 2.56
1085 1 84.48 31.0384 2.56
1086 1 85.76 33.2554 2.56
1087 1 88.32 33.2554 2.56
1088 1 89.6 31.0384 2.56
1089 1 84.48 35.4724 2.56
1090 1 85.76 37.6894 2.56
1091 1 88.32 37.6894 2.56
1092 1 89.6 35.4724 2.56
1093 1 84.48 39.9065 2.56
1094 1 85.76 42.1235 2.56
1095 1 88.32 42.1235 2.56
1096 1 89.6 39.9065 2.56
1097 1 84.48 44.3405 2.56
1098 1 85.76 46.5575 2.56
1099 1 88.32 46.5575 2.56
1100 1 89.6 44.3405 2.56
1101 1 84.48 48.7746 2.56
1102 1 85.76 50.9916 2.56
1103 1 88.32 50.9916 2.56
1104 1 89.6 48.7746 2.56
1105 1 84.48 53.2086 2.56
1106 1 85.76 55.4256 2.56
1107 1 88.32 55.4256 2.56
1108 1 89.6 53.2086 2.56
1109 1 84.48 57.6427 2.56
1110 1 85.76 59.8597 2.56
1111 1 88.32 59.8597 2.56
1112 1 89.6 57.6427 2.56
1113 1 84.48 62.0767 2.56
1114 1 85.76 64.2937 2.56
1115 1 88.32 64.2937 2.56
1116 1 89.6 62.0767 2.56
1117 1 84.48 66.5108 2.56
1118 1 85.76 68.7278 2.56
1119 1 88.32 68.7278 2.56
1120 1 89.6 66.5108 2.56
1121 1 84.48 70.9448 2.56
1122 1 85.76 73.1618 2.56
1123 1 88.32 73.1618 2.56
1124 1 89.6 70.9448 2.56
1125 1 84.48 75.3789 2.56
1126 1 85.76 77.5959 2.56
1127 1 88.32 77.5959 2.56
1128 1 89.6 75.3789 2.56
1129 1 84.48 79.8129 2.56
1130 1 85.76 82.0299 2.56
1131 1 88.32 82.0299 2.56
1132 1 89.6 79.8129 2.56
1133 1 84.48 84.247 2.56
1134 1 85.76 86.464 2.56
1135 1 88.32 86.464 2.56
1136 1 89.6 84.247 2.56
1137 1 84.48 88.681 2.56
1138 1 85.76 90.898 2.56
1139 1 88.32 90.898 2.56
1140 1 89.6 88.681 2.56
1141 1 84.48 93.1151 2.56
1142 1 85.76 95.3321 2.56
1143 1 88.32 95.3321 2.56
1144 1 89.6 93.1151 2.56
1145 1 84.48 97.5491 2.56
1146 1 85.76 99.7661 2.56
1147 1 88.32 99.7661 2.56
1148 1 89.6 97.5491 2.56
1149 1 84.48 101.983 2.56
1150 1 85.76 104.2 2.56
1151 1 88.32 104.2 2.56
1152 1 89.6 101.983 2.56
1153 1 92.16 0 2.56
1154 1 93.44 2.21703 2.56
1155 1 96 2.21703 2.56
1156 1 97.28 0 2.56
1157 1 92.16 4.43405 2.56
1158 1 93.44 6.65108 2.56
1159 1 96 6.65108 2.56
1160 1 97.28 4.43405 2.56
1161 1 92.16 8.8681 2.56
1162 1 93.44 11.0851 2.56
1163 1 96 11.0851 2.56
1164 1 97.28 8.8681 2.56
1165 1 92.16 13.3022 2.56
1166 1 93.44 15.5192 2.56
1167 1 96 15.5192 2.56
1168 1 97.28 13.3022 2.56
1169 1 92.16 17.7362 2.56
1170 1 93.44 19.9532 2.56
1171 1 96 19.9532 2.56
1172 1 97.28 17.7362 2.56
1173 1 92.16 22.1703 2.56
1174 1 93.44 24.3873 2.56
1175 1 96 24.3873 2.56
1176 1 97.28 22.1703 2.56
1177 1 92.16 26.6043 2.56
1178 1 93.44 28.8213 2.56
1179 1 96 28.8213 2.56
1180 1 97.28 26.6043 2.56
1181 1 92.16 31.0384 2.56
1182 1 93.44 33.2554 2.56
1183 1 96 33.2554 2.56
1184 1 97.28 31.0384 2.56
1185 1 92.16 35.4724 2.56
1186 1 93.44 37.6894 2.56
1187 1 96 37.6894 2.56
1188 1 97.28 35.4724 2.56
1189 1 92.16 39.9065 2.56
1190 1 93.44 42.1235 2.56
1191 1 96 42.1235 2.56
1192 1 97.28 39.9065 2.56
1193 1 92.16 44.3405 2.56
1194 1 93.44 46.5575 2.56
1195 1 96 46.5575 2.56
1196 1 97.28 44.3405 2.56
1197 1 92.16 48.7746 2.56
1198 1 93.44 50.9916 2.56
1199 1 96 50.9916 2.56
1200 1 97.28 48.7746 2.56
1201 1 92.16 53.2086 2.56
1202 1 93.44 55.4256 2.56
1203 1 96 55.4256 2.56
1204 1 97.28 53.2086 2.56
1205 1 92.16 57.6427 2.56
1206 1 93.44 59.8597 2.56
1207 1 96 59.8597 2.56
1208 1 97.28 57.6427 2.56
1209 1 92.16 62.0767 2.56
1210 1 93.44 64.2937 2.56
1211 1 96 64.2937 2.56
1212 1 97.28 62.0767 2.56
1213 1 92.16 66.5108 2.56
1214 1 93.44 68.7278 2.56
1215 1 96 68.7278 2.56
1216 1 97.28 66.5108 2.56
1217 1 92.16 70.9448 2.56
1218 1 93.44 73.1618 2.56
1219 1 96 73.1618 2.56
1220 1 97.28 70.9448 2.56
1221 1 92.16 75.3789 2.56
1222 1 93.44 77.5959 2.56
1223 1 96 77.5959 2.56