#germanene 1.020000e+01x1.020000e+01, a=2.47(2.55666), lx=14, ly=24
2688 atoms

2 atom types

0 103.74 xlo xhi
0 102.676 ylo yhi
-60 60 zlo zhi

Masses

1 28.0855
2 28.0855

Atoms

1 1 0 0 3.22
2 1 1.235 2.13908 2.56
3 1 3.705 2.13908 3.22
4 1 4.94 0 2.56
5 1 0 4.27817 3.22
6 1 1.235 6.41725 2.56
7 1 3.705 6.41725 3.22
8 1 4.94 4.27817 2.56
9 1 0 8.55633 3.22
10 1 1.235 10.6954 2.56
11 1 3.705 10.6954 3.22
12 1 4.94 8.55633 2.56
13 1 0 12.8345 3.22
14 1 1.235 14.9736 2.56
15 1 3.705 14.9736 3.22
16 1 4.94 12.8345 2.56
17 1 0 17.1127 3.22
18 1 1.235 19.2517 2.56
19 1 3.705 19.2517 3.22
20 1 4.94 17.1127 2.56
21 1 0 21.3908 3.22
22 1 1.235 23.5299 2.56
23 1 3.705 23.5299 3.22
24 1 4.94 21.3908 2.56
25 1 0 25.669 3.22
26 1 1.235 27.8081 2.56
27 1 3.705 27.8081 3.22
28 1 4.94 25.669 2.56
29 1 0 29.9472 3.22
30 1 1.235 32.0862 2.56
31 1 3.705 32.0862 3.22
32 1 4.94 29.9472 2.56
33 1 0 34.2253 3.22
34 1 1.235 36.3644 2.56
35 1 3.705 36.3644 3.22
36 1 4.94 34.2253 2.56
37 1 0 38.5035 3.22
38 1 1.235 40.6426 2.56
39 1 3.705 40.6426 3.22
40 1 4.94 38.5035 2.56
41 1 0 42.7817 3.22
42 1 1.235 44.9207 2.56
43 1 3.705 44.9207 3.22
44 1 4.94 42.7817 2.56
45 1 0 47.0598 3.22
46 1 1.235 49.1989 2.56
47 1 3.705 49.1989 3.22
48 1 4.94 47.0598 2.56
49 1 0 51.338 3.22
50 1 1.235 53.4771 2.56
51 1 3.705 53.4771 3.22
52 1 4.94 51.338 2.56
53 1 0 55.6162 3.22
54 1 1.235 57.7552 2.56
55 1 3.705 57.7552 3.22
56 1 4.94 55.6162 2.56
57 1 0 59.8943 3.22
58 1 1.235 62.0334 2.56
59 1 3.705 62.0334 3.22
60 1 4.94 59.8943 2.56
61 1 0 64.1725 3.22
62 1 1.235 66.3116 2.56
63 1 3.705 66.3116 3.22
64 1 4.94 64.1725 2.56
65 1 0 68.4506 3.22
66 1 1.235 70.5897 2.56
67 1 3.705 70.5897 3.22
68 1 4.94 68.4506 2.56
69 1 0 72.7288 3.22
70 1 1.235 74.8679 2.56
71 1 3.705 74.8679 3.22
72 1 4.94 72.7288 2.56
73 1 0 77.007 3.22
74 1 1.235 79.1461 2.56
75 1 3.705 79.1461 3.22
76 1 4.94 77.007 2.56
77 1 0 81.2851 3.22
78 1 1.235 83.4242 2.56
79 1 3.705 83.4242 3.22
80 1 4.94 81.2851 2.56
81 1 0 85.5633 3.22
82 1 1.235 87.7024 2.56
83 1 3.705 87.7024 3.22
84 1 4.94 85.5633 2.56
85 1 0 89.8415 3.22
86 1 1.235 91.9806 2.56
87 1 3.705 91.9806 3.22
88 1 4.94 89.8415 2.56
89 1 0 94.1196 3.22
90 1 1.235 96.2587 2.56
91 1 3.705 96.2587 3.22
92 1 4.94 94.1196 2.56
93 1 0 98.3978 3.22
94 1 1.235 100.537 2.56
95 1 3.705 100.537 3.22
96 1 4.94 98.3978 2.56
97 1 7.41 0 3.22
98 1 8.645 2.13908 2.56
99 1 11.115 2.13908 3.22
100 1 12.35 0 2.56
101 1 7.41 4.27817 3.22
102 1 8.645 6.41725 2.56
103 1 11.115 6.41725 3.22
104 1 12.35 4.27817 2.56
105 1 7.41 8.55633 3.22
106 1 8.645 10.6954 2.56
107 1 11.115 10.6954 3.22
108 1 12.35 8.55633 2.56
109 1 7.41 12.8345 3.22
110 1 8.645 14.9736 2.56
111 1 11.115 14.9736 3.22
112 1 12.35 12.8345 2.56
113 1 7.41 17.1127 3.22
114 1 8.645 19.2517 2.56
115 1 11.115 19.2517 3.22
116 1 12.35 17.1127 2.56
117 1 7.41 21.3908 3.22
118 1 8.645 23.5299 2.56
119 1 11.115 23.5299 3.22
120 1 12.35 21.3908 2.56
121 1 7.41 25.669 3.22
122 1 8.645 27.8081 2.56
123 1 11.115 27.8081 3.22
124 1 12.35 25.669 2.56
125 1 7.41 29.9472 3.22
126 1 8.645 32.0862 2.56
127 1 11.115 32.0862 3.22
128 1 12.35 29.9472 2.56
129 1 7.41 34.2253 3.22
130 1 8.645 36.3644 2.56
131 1 11.115 36.3644 3.22
132 1 12.35 34.2253 2.56
133 1 7.41 38.5035 3.22
134 1 8.645 40.6426 2.56
135 1 11.115 40.6426 3.22
136 1 12.35 38.5035 2.56
137 1 7.41 42.7817 3.22
138 1 8.645 44.9207 2.56
139 1 11.115 44.9207 3.22
140 1 12.35 42.7817 2.56
141 1 7.41 47.0598 3.22
142 1 8.645 49.1989 2.56
143 1 11.115 49.1989 3.22
144 1 12.35 47.0598 2.56
145 1 7.41 51.338 3.22
146 1 8.645 53.4771 2.56
147 1 11.115 53.4771 3.22
148 1 12.35 51.338 2.56
149 1 7.41 55.6162 3.22
150 1 8.645 57.7552 2.56
151 1 11.115 57.7552 3.22
152 1 12.35 55.6162 2.56
153 1 7.41 59.8943 3.22
154 1 8.645 62.0334 2.56
155 1 11.115 62.0334 3.22
156 1 12.35 59.8943 2.56
157 1 7.41 64.1725 3.22
158 1 8.645 66.3116 2.56
159 1 11.115 66.3116 3.22
160 1 12.35 64.1725 2.56
161 1 7.41 68.4506 3.22
162 1 8.645 70.5897 2.56
163 1 11.115 70.5897 3.22
164 1 12.35 68.4506 2.56
165 1 7.41 72.7288 3.22
166 1 8.645 74.8679 2.56
167 1 11.115 74.8679 3.22
168 1 12.35 72.7288 2.56
169 1 7.41 77.007 3.22
170 1 8.645 79.1461 2.56
171 1 11.115 79.1461 3.22
172 1 12.35 77.007 2.56
173 1 7.41 81.2851 3.22
174 1 8.645 83.4242 2.56
175 1 11.115 83.4242 3.22
176 1 12.35 81.2851 2.56
177 1 7.41 85.5633 3.22
178 1 8.645 87.7024 2.56
179 1 11.115 87.7024 3.22
180 1 12.35 85.5633 2.56
181 1 7.41 89.8415 3.22
182 1 8.645 91.9806 2.56
183 1 11.115 91.9806 3.22
184 1 12.35 89.8415 2.56
185 1 7.41 94.1196 3.22
186 1 8.645 96.2587 2.56
187 1 11.115 96.2587 3.22
188 1 12.35 94.1196 2.56
189 1 7.41 98.3978 3.22
190 1 8.645 100.537 2.56
191 1 11.115 100.537 3.22
192 1 12.35 98.3978 2.56
193 1 14.82 0 3.22
194 1 16.055 2.13908 2.56
195 1 18.525 2.13908 3.22
196 1 19.76 0 2.56
197 1 14.82 4.27817 3.22
198 1 16.055 6.41725 2.56
199 1 18.525 6.41725 3.22
200 1 19.76 4.27817 2.56
201 1 14.82 8.55633 3.22
202 1 16.055 10.6954 2.56
203 1 18.525 10.6954 3.22
204 1 19.76 8.55633 2.56
205 1 14.82 12.8345 3.22
206 1 16.055 14.9736 2.56
207 1 18.525 14.9736 3.22
208 1 19.76 12.8345 2.56
209 1 14.82 17.1127 3.22
210 1 16.055 19.2517 2.56
211 1 18.525 19.2517 3.22
212 1 19.76 17.1127 2.56
213 1 14.82 21.3908 3.22
214 1 16.055 23.5299 2.56
215 1 18.525 23.5299 3.22
216 1 19.76 21.3908 2.56
217 1 14.82 25.669 3.22
218 1 16.055 27.8081 2.56
219 1 18.525 27.8081 3.22
220 1 19.76 25.669 2.56
221 1 14.82 29.9472 3.22
222 1 16.055 32.0862 2.56
223 1 18.525 32.0862 3.22
224 1 19.76 29.9472 2.56
225 1 14.82 34.2253 3.22
226 1 16.055 36.3644 2.56
227 1 18.525 36.3644 3.22
228 1 19.76 34.2253 2.56
229 1 14.82 38.5035 3.22
230 1 16.055 40.6426 2.56
231 1 18.525 40.6426 3.22
232 1 19.76 38.5035 2.56
233 1 14.82 42.7817 3.22
234 1 16.055 44.9207 2.56
235 1 18.525 44.9207 3.22
236 1 19.76 42.7817 2.56
237 1 14.82 47.0598 3.22
238 1 16.055 49.1989 2.56
239 1 18.525 49.1989 3.22
240 1 19.76 47.0598 2.56
241 1 14.82 51.338 3.22
242 1 16.055 53.4771 2.56
243 1 18.525 53.4771 3.22
244 1 19.76 51.338 2.56
245 1 14.82 55.6162 3.22
246 1 16.055 57.7552 2.56
247 1 18.525 57.7552 3.22
248 1 19.76 55.6162 2.56
249 1 14.82 59.8943 3.22
250 1 16.055 62.0334 2.56
251 1 18.525 62.0334 3.22
252 1 19.76 59.8943 2.56
253 1 14.82 64.1725 3.22
254 1 16.055 66.3116 2.56
255 1 18.525 66.3116 3.22
256 1 19.76 64.1725 2.56
257 1 14.82 68.4506 3.22
258 1 16.055 70.5897 2.56
259 1 18.525 70.5897 3.22
260 1 19.76 68.4506 2.56
261 1 14.82 72.7288 3.22
262 1 16.055 74.8679 2.56
263 1 18.525 74.8679 3.22
264 1 19.76 72.7288 2.56
265 1 14.82 77.007 3.22
266 1 16.055 79.1461 2.56
267 1 18.525 79.1461 3.22
268 1 19.76 77.007 2.56
269 1 14.82 81.2851 3.22
270 1 16.055 83.4242 2.56
271 1 18.525 83.4242 3.22
272 1 19.76 81.2851 2.56
273 1 14.82 85.5633 3.22
274 1 16.055 87.7024 2.56
275 1 18.525 87.7024 3.22
276 1 19.76 85.5633 2.56
277 1 14.82 89.8415 3.22
278 1 16.055 91.9806 2.56
279 1 18.525 91.9806 3.22
280 1 19.76 89.8415 2.56
281 1 14.82 94.1196 3.22
282 1 16.055 96.2587 2.56
283 1 18.525 96.2587 3.22
284 1 19.76 94.1196 2.56
285 1 14.82 98.3978 3.22
286 1 16.055 100.537 2.56
287 1 18.525 100.537 3.22
288 1 19.76 98.3978 2.56
289 1 22.23 0 3.22
290 1 23.465 2.13908 2.56
291 1 25.935 2.13908 3.22
292 1 27.17 0 2.56
293 1 22.23 4.27817 3.22
294 1 23.465 6.41725 2.56
295 1 25.935 6.41725 3.22
296 1 27.17 4.27817 2.56
297 1 22.23 8.55633 3.22
298 1 23.465 10.6954 2.56
299 1 25.935 10.6954 3.22
300 1 27.17 8.55633 2.56
301 1 22.23 12.8345 3.22
302 1 23.465 14.9736 2.56
303 1 25.935 14.9736 3.22
304 1 27.17 12.8345 2.56
305 1 22.23 17.1127 3.22
306 1 23.465 19.2517 2.56
307 1 25.935 19.2517 3.22
308 1 27.17 17.1127 2.56
309 1 22.23 21.3908 3.22
310 1 23.465 23.5299 2.56
311 1 25.935 23.5299 3.22
312 1 27.17 21.3908 2.56
313 1 22.23 25.669 3.22
314 1 23.465 27.8081 2.56
315 1 25.935 27.8081 3.22
316 1 27.17 25.669 2.56
317 1 22.23 29.9472 3.22
318 1 23.465 32.0862 2.56
319 1 25.935 32.0862 3.22
320 1 27.17 29.9472 2.56
321 1 22.23 34.2253 3.22
322 1 23.465 36.3644 2.56
323 1 25.935 36.3644 3.22
324 1 27.17 34.2253 2.56
325 1 22.23 38.5035 3.22
326 1 23.465 40.6426 2.56
327 1 25.935 40.6426 3.22
328 1 27.17 38.5035 2.56
329 1 22.23 42.7817 3.22
330 1 23.465 44.9207 2.56
331 1 25.935 44.9207 3.22
332 1 27.17 42.7817 2.56
333 1 22.23 47.0598 3.22
334 1 23.465 49.1989 2.56
335 1 25.935 49.1989 3.22
336 1 27.17 47.0598 2.56
337 1 22.23 51.338 3.22
338 1 23.465 53.4771 2.56
339 1 25.935 53.4771 3.22
340 1 27.17 51.338 2.56
341 1 22.23 55.6162 3.22
342 1 23.465 57.7552 2.56
343 1 25.935 57.7552 3.22
344 1 27.17 55.6162 2.56
345 1 22.23 59.8943 3.22
346 1 23.465 62.0334 2.56
347 1 25.935 62.0334 3.22
348 1 27.17 59.8943 2.56
349 1 22.23 64.1725 3.22
350 1 23.465 66.3116 2.56
351 1 25.935 66.3116 3.22
352 1 27.17 64.1725 2.56
353 1 22.23 68.4506 3.22
354 1 23.465 70.5897 2.56
355 1 25.935 70.5897 3.22
356 1 27.17 68.4506 2.56
357 1 22.23 72.7288 3.22
358 1 23.465 74.8679 2.56
359 1 25.935 74.8679 3.22
360 1 27.17 72.7288 2.56
361 1 22.23 77.007 3.22
362 1 23.465 79.1461 2.56
363 1 25.935 79.1461 3.22
364 1 27.17 77.007 2.56
365 1 22.23 81.2851 3.22
366 1 23.465 83.4242 2.56
367 1 25.935 83.4242 3.22
368 1 27.17 81.2851 2.56
369 1 22.23 85.5633 3.22
370 1 23.465 87.7024 2.56
371 1 25.935 87.7024 3.22
372 1 27.17 85.5633 2.56
373 1 22.23 89.8415 3.22
374 1 23.465 91.9806 2.56
375 1 25.935 91.9806 3.22
376 1 27.17 89.8415 2.56
377 1 22.23 94.1196 3.22
378 1 23.465 96.2587 2.56
379 1 25.935 96.2587 3.22
380 1 27.17 94.1196 2.56
381 1 22.23 98.3978 3.22
382 1 23.465 100.537 2.56
383 1 25.935 100.537 3.22
384 1 27.17 98.3978 2.56
385 1 29.64 0 3.22
386 1 30.875 2.13908 2.56
387 1 33.345 2.13908 3.22
388 1 34.58 0 2.56
389 1 29.64 4.27817 3.22
390 1 30.875 6.41725 2.56
391 1 33.345 6.41725 3.22
392 1 34.58 4.27817 2.56
393 1 29.64 8.55633 3.22
394 1 30.875 10.6954 2.56
395 1 33.345 10.6954 3.22
396 1 34.58 8.55633 2.56
397 1 29.64 12.8345 3.22
398 1 30.875 14.9736 2.56
399 1 33.345 14.9736 3.22
400 1 34.58 12.8345 2.56
401 1 29.64 17.1127 3.22
402 1 30.875 19.2517 2.56
403 1 33.345 19.2517 3.22
404 1 34.58 17.1127 2.56
405 1 29.64 21.3908 3.22
406 1 30.875 23.5299 2.56
407 1 33.345 23.5299 3.22
408 1 34.58 21.3908 2.56
409 1 29.64 25.669 3.22
410 1 30.875 27.8081 2.56
411 1 33.345 27.8081 3.22
412 1 34.58 25.669 2.56
413 1 29.64 29.9472 3.22
414 1 30.875 32.0862 2.56
415 1 33.345 32.0862 3.22
416 1 34.58 29.9472 2.56
417 1 29.64 34.2253 3.22
418 1 30.875 36.3644 2.56
419 1 33.345 36.3644 3.22
420 1 34.58 34.2253 2.56
421 1 29.64 38.5035 3.22
422 1 30.875 40.6426 2.56
423 1 33.345 40.6426 3.22
424 1 34.58 38.5035 2.56
425 1 29.64 42.7817 3.22
426 1 30.875 44.9207 2.56
427 1 33.345 44.9207 3.22
428 1 34.58 42.7817 2.56
429 1 29.64 47.0598 3.22
430 1 30.875 49.1989 2.56
431 1 33.345 49.1989 3.22
432 1 34.58 47.0598 2.56
433 1 29.64 51.338 3.22
434 1 30.875 53.4771 2.56
435 1 33.345 53.4771 3.22
436 1 34.58 51.338 2.56
437 1 29.64 55.6162 3.22
438 1 30.875 57.7552 2.56
439 1 33.345 57.7552 3.22
440 1 34.58 55.6162 2.56
441 1 29.64 59.8943 3.22
442 1 30.875 62.0334 2.56
443 1 33.345 62.0334 3.22
444 1 34.58 59.8943 2.56
445 1 29.64 64.1725 3.22
446 1 30.875 66.3116 2.56
447 1 33.345 66.3116 3.22
448 1 34.58 64.1725 2.56
449 1 29.64 68.4506 3.22
450 1 30.875 70.5897 2.56
451 1 33.345 70.5897 3.22
452 1 34.58 68.4506 2.56
453 1 29.64 72.7288 3.22
454 1 30.875 74.8679 2.56
455 1 33.345 74.8679 3.22
456 1 34.58 72.7288 2.56
457 1 29.64 77.007 3.22
458 1 30.875 79.1461 2.56
459 1 33.345 79.1461 3.22
460 1 34.58 77.007 2.56
461 1 29.64 81.2851 3.22
462 1 30.875 83.4242 2.56
463 1 33.345 83.4242 3.22
464 1 34.58 81.2851 2.56
465 1 29.64 85.5633 3.22
466 1 30.875 87.7024 2.56
467 1 33.345 87.7024 3.22
468 1 34.58 85.5633 2.56
469 1 29.64 89.8415 3.22
470 1 30.875 91.9806 2.56
471 1 33.345 91.9806 3.22
472 1 34.58 89.8415 2.56
473 1 29.64 94.1196 3.22
474 1 30.875 96.2587 2.56
475 1 33.345 96.2587 3.22
476 1 34.58 94.1196 2.56
477 1 29.64 98.3978 3.22
478 1 30.875 100.537 2.56
479 1 33.345 100.537 3.22
480 1 34.58 98.3978 2.56
481 1 37.05 0 3.22
482 1 38.285 2.13908 2.56
483 1 40.755 2.13908 3.22
484 1 41.99 0 2.56
485 1 37.05 4.27817 3.22
486 1 38.285 6.41725 2.56
487 1 40.755 6.41725 3.22
488 1 41.99 4.27817 2.56
489 1 37.05 8.55633 3.22
490 1 38.285 10.6954 2.56
491 1 40.755 10.6954 3.22
492 1 41.99 8.55633 2.56
493 1 37.05 12.8345 3.22
494 1 38.285 14.9736 2.56
495 1 40.755 14.9736 3.22
496 1 41.99 12.8345 2.56
497 1 37.05 17.1127 3.22
498 1 38.285 19.2517 2.56
499 1 40.755 19.2517 3.22
500 1 41.99 17.1127 2.56
501 1 37.05 21.3908 3.22
502 1 38.285 23.5299 2.56
503 1 40.755 23.5299 3.22
504 1 41.99 21.3908 2.56
505 1 37.05 25.669 3.22
506 1 38.285 27.8081 2.56
507 1 40.755 27.8081 3.22
508 1 41.99 25.669 2.56
509 1 37.05 29.9472 3.22
510 1 38.285 32.0862 2.56
511 1 40.755 32.0862 3.22
512 1 41.99 29.9472 2.56
513 1 37.05 34.2253 3.22
514 1 38.285 36.3644 2.56
515 1 40.755 36.3644 3.22
516 1 41.99 34.2253 2.56
517 1 37.05 38.5035 3.22
518 1 38.285 40.6426 2.56
519 1 40.755 40.6426 3.22
520 1 41.99 38.5035 2.56
521 1 37.05 42.7817 3.22
522 1 38.285 44.9207 2.56
523 1 40.755 44.9207 3.22
524 1 41.99 42.7817 2.56
525 1 37.05 47.0598 3.22
526 1 38.285 49.1989 2.56
527 1 40.755 49.1989 3.22
528 1 41.99 47.0598 2.56
529 1 37.05 51.338 3.22
530 1 38.285 53.4771 2.56
531 1 40.755 53.4771 3.22
532 1 41.99 51.338 2.56
533 1 37.05 55.6162 3.22
534 1 38.285 57.7552 2.56
535 1 40.755 57.7552 3.22
536 1 41.99 55.6162 2.56
537 1 37.05 59.8943 3.22
538 1 38.285 62.0334 2.56
539 1 40.755 62.0334 3.22
540 1 41.99 59.8943 2.56
541 1 37.05 64.1725 3.22
542 1 38.285 66.3116 2.56
543 1 40.755 66.3116 3.22
544 1 41.99 64.1725 2.56
545 1 37.05 68.4506 3.22
546 1 38.285 70.5897 2.56
547 1 40.755 70.5897 3.22
548 1 41.99 68.4506 2.56
549 1 37.05 72.7288 3.22
550 1 38.285 74.8679 2.56
551 1 40.755 74.8679 3.22
552 1 41.99 72.7288 2.56
553 1 37.05 77.007 3.22
554 1 38.285 79.1461 2.56
555 1 40.755 79.1461 3.22
556 1 41.99 77.007 2.56
557 1 37.05 81.2851 3.22
558 1 38.285 83.4242 2.56
559 1 40.755 83.4242 3.22
560 1 41.99 81.2851 2.56
561 1 37.05 85.5633 3.22
562 1 38.285 87.7024 2.56
563 1 40.755 87.7024 3.22
564 1 41.99 85.5633 2.56
565 1 37.05 89.8415 3.22
566 1 38.285 91.9806 2.56
567 1 40.755 91.9806 3.22
568 1 41.99 89.8415 2.56
569 1 37.05 94.1196 3.22
570 1 38.285 96.2587 2.56
571 1 40.755 96.2587 3.22
572 1 41.99 94.1196 2.56
573 1 37.05 98.3978 3.22
574 1 38.285 100.537 2.56
575 1 40.755 100.537 3.22
576 1 41.99 98.3978 2.56
577 1 44.46 0 3.22
578 1 45.695 2.13908 2.56
579 1 48.165 2.13908 3.22
580 1 49.4 0 2.56
581 1 44.46 4.27817 3.22
582 1 45.695 6.41725 2.56
583 1 48.165 6.41725 3.22
584 1 49.4 4.27817 2.56
585 1 44.46 8.55633 3.22
586 1 45.695 10.6954 2.56
587 1 48.165 10.6954 3.22
588 1 49.4 8.55633 2.56
589 1 44.46 12.8345 3.22
590 1 45.695 14.9736 2.56
591 1 48.165 14.9736 3.22
592 1 49.4 12.8345 2.56
593 1 44.46 17.1127 3.22
594 1 45.695 19.2517 2.56
595 1 48.165 19.2517 3.22
596 1 49.4 17.1127 2.56
597 1 44.46 21.3908 3.22
598 1 45.695 23.5299 2.56
599 1 48.165 23.5299 3.22
600 1 49.4 21.3908 2.56
601 1 44.46 25.669 3.22
602 1 45.695 27.8081 2.56
603 1 48.165 27.8081 3.22
604 1 49.4 25.669 2.56
605 1 44.46 29.9472 3.22
606 1 45.695 32.0862 2.56
607 1 48.165 32.0862 3.22
608 1 49.4 29.9472 2.56
609 1 44.46 34.2253 3.22
610 1 45.695 36.3644 2.56
611 1 48.165 36.3644 3.22
612 1 49.4 34.2253 2.56
613 1 44.46 38.5035 3.22
614 1 45.695 40.6426 2.56
615 1 48.165 40.6426 3.22
616 1 49.4 38.5035 2.56
617 1 44.46 42.7817 3.22
618 1 45.695 44.9207 2.56
619 1 48.165 44.9207 3.22
620 1 49.4 42.7817 2.56
621 1 44.46 47.0598 3.22
622 1 45.695 49.1989 2.56
623 1 48.165 49.1989 3.22
624 1 49.4 47.0598 2.56
625 1 44.46 51.338 3.22
626 1 45.695 53.4771 2.56
627 1 48.165 53.4771 3.22
628 1 49.4 51.338 2.56
629 1 44.46 55.6162 3.22
630 1 45.695 57.7552 2.56
631 1 48.165 57.7552 3.22
632 1 49.4 55.6162 2.56
633 1 44.46 59.8943 3.22
634 1 45.695 62.0334 2.56
635 1 48.165 62.0334 3.22
636 1 49.4 59.8943 2.56
637 1 44.46 64.1725 3.22
638 1 45.695 66.3116 2.56
639 1 48.165 66.3116 3.22
640 1 49.4 64.1725 2.56
641 1 44.46 68.4506 3.22
642 1 45.695 70.5897 2.56
643 1 48.165 70.5897 3.22
644 1 49.4 68.4506 2.56
645 1 44.46 72.7288 3.22
646 1 45.695 74.8679 2.56
647 1 48.165 74.8679 3.22
648 1 49.4 72.7288 2.56
649 1 44.46 77.007 3.22
650 1 45.695 79.1461 2.56
651 1 48.165 79.1461 3.22
652 1 49.4 77.007 2.56
653 1 44.46 81.2851 3.22
654 1 45.695 83.4242 2.56
655 1 48.165 83.4242 3.22
656 1 49.4 81.2851 2.56
657 1 44.46 85.5633 3.22
658 1 45.695 87.7024 2.56
659 1 48.165 87.7024 3.22
660 1 49.4 85.5633 2.56
661 1 44.46 89.8415 3.22
662 1 45.695 91.9806 2.56
663 1 48.165 91.9806 3.22
664 1 49.4 89.8415 2.56
665 1 44.46 94.1196 3.22
666 1 45.695 96.2587 2.56
667 1 48.165 96.2587 3.22
668 1 49.4 94.1196 2.56
669 1 44.46 98.3978 3.22
670 1 45.695 100.537 2.56
671 1 48.165 100.537 3.22
672 1 49.4 98.3978 2.56
673 1 51.87 0 3.22
674 1 53.105 2.13908 2.56
675 1 55.575 2.13908 3.22
676 1 56.81 0 2.56
677 1 51.87 4.27817 3.22
678 1 53.105 6.41725 2.56
679 1 55.575 6.41725 3.22
680 1 56.81 4.27817 2.56
681 1 51.87 8.55633 3.22
682 1 53.105 10.6954 2.56
683 1 55.575 10.6954 3.22
684 1 56.81 8.55633 2.56
685 1 51.87 12.8345 3.22
686 1 53.105 14.9736 2.56
687 1 55.575 14.9736 3.22
688 1 56.81 12.8345 2.56
689 1 51.87 17.1127 3.22
690 1 53.105 19.2517 2.56
691 1 55.575 19.2517 3.22
692 1 56.81 17.1127 2.56
693 1 51.87 21.3908 3.22
694 1 53.105 23.5299 2.56
695 1 55.575 23.5299 3.22
696 1 56.81 21.3908 2.56
697 1 51.87 25.669 3.22
698 1 53.105 27.8081 2.56
699 1 55.575 27.8081 3.22
700 1 56.81 25.669 2.56
701 1 51.87 29.9472 3.22
702 1 53.105 32.0862 2.56
703 1 55.575 32.0862 3.22
704 1 56.81 29.9472 2.56
705 1 51.87 34.2253 3.22
706 1 53.105 36.3644 2.56
707 1 55.575 36.3644 3.22
708 1 56.81 34.2253 2.56
709 1 51.87 38.5035 3.22
710 1 53.105 40.6426 2.56
711 1 55.575 40.6426 3.22
712 1 56.81 38.5035 2.56
713 1 51.87 42.7817 3.22
714 1 53.105 44.9207 2.56
715 1 55.575 44.9207 3.22
716 1 56.81 42.7817 2.56
717 1 51.87 47.0598 3.22
718 1 53.105 49.1989 2.56
719 1 55.575 49.1989 3.22
720 1 56.81 47.0598 2.56
721 1 51.87 51.338 3.22
722 1 53.105 53.4771 2.56
723 1 55.575 53.4771 3.22
724 1 56.81 51.338 2.56
725 1 51.87 55.6162 3.22
726 1 53.105 57.7552 2.56
727 1 55.575 57.7552 3.22
728 1 56.81 55.6162 2.56
729 1 51.87 59.8943 3.22
730 1 53.105 62.0334 2.56
731 1 55.575 62.0334 3.22
732 1 56.81 59.8943 2.56
733 1 51.87 64.1725 3.22
734 1 53.105 66.3116 2.56
735 1 55.575 66.3116 3.22
736 1 56.81 64.1725 2.56
737 1 51.87 68.4506 3.22
738 1 53.105 70.5897 2.56
739 1 55.575 70.5897 3.22
740 1 56.81 68.4506 2.56
741 1 51.87 72.7288 3.22
742 1 53.105 74.8679 2.56
743 1 55.575 74.8679 3.22
744 1 56.81 72.7288 2.56
745 1 51.87 77.007 3.22
746 1 53.105 79.1461 2.56
747 1 55.575 79.1461 3.22
748 1 56.81 77.007 2.56
749 1 51.87 81.2851 3.22
750 1 53.105 83.4242 2.56
751 1 55.575 83.4242 3.22
752 1 56.81 81.2851 2.56
753 1 51.87 85.5633 3.22
754 1 53.105 87.7024 2.56
755 1 55.575 87.7024 3.22
756 1 56.81 85.5633 2.56
757 1 51.87 89.8415 3.22
758 1 53.105 91.9806 2.56
759 1 55.575 91.9806 3.22
760 1 56.81 89.8415 2.56
761 1 51.87 94.1196 3.22
762 1 53.105 96.2587 2.56
763 1 55.575 96.2587 3.22
764 1 56.81 94.1196 2.56
765 1 51.87 98.3978 3.22
766 1 53.105 100.537 2.56
767 1 55.575 100.537 3.22
768 1 56.81 98.3978 2.56
769 1 59.28 0 3.22
770 1 60.515 2.13908 2.56
771 1 62.985 2.13908 3.22
772 1 64.22 0 2.56
773 1 59.28 4.27817 3.22
774 1 60.515 6.41725 2.56
775 1 62.985 6.41725 3.22
776 1 64.22 4.27817 2.56
777 1 59.28 8.55633 3.22
778 1 60.515 10.6954 2.56
779 1 62.985 10.6954 3.22
780 1 64.22 8.55633 2.56
781 1 59.28 12.8345 3.22
782 1 60.515 14.9736 2.56
783 1 62.985 14.9736 3.22
784 1 64.22 12.8345 2.56
785 1 59.28 17.1127 3.22
786 1 60.515 19.2517 2.56
787 1 62.985 19.2517 3.22
788 1 64.22 17.1127 2.56
789 1 59.28 21.3908 3.22
790 1 60.515 23.5299 2.56
791 1 62.985 23.5299 3.22
792 1 64.22 21.3908 2.56
793 1 59.28 25.669 3.22
794 1 60.515 27.8081 2.56
795 1 62.985 27.8081 3.22
796 1 64.22 25.669 2.56
797 1 59.28 29.9472 3.22
798 1 60.515 32.0862 2.56
799 1 62.985 32.0862 3.22
800 1 64.22 29.9472 2.56
801 1 59.28 34.2253 3.22
802 1 60.515 36.3644 2.56
803 1 62.985 36.3644 3.22
804 1 64.22 34.2253 2.56
805 1 59.28 38.5035 3.22
806 1 60.515 40.6426 2.56
807 1 62.985 40.6426 3.22
808 1 64.22 38.5035 2.56
809 1 59.28 42.7817 3.22
810 1 60.515 44.9207 2.56
811 1 62.985 44.9207 3.22
812 1 64.22 42.7817 2.56
813 1 59.28 47.0598 3.22
814 1 60.515 49.1989 2.56
815 1 62.985 49.1989 3.22
816 1 64.22 47.0598 2.56
817 1 59.28 51.338 3.22
818 1 60.515 53.4771 2.56
819 1 62.985 53.4771 3.22
820 1 64.22 51.338 2.56
821 1 59.28 55.6162 3.22
822 1 60.515 57.7552 2.56
823 1 62.985 57.7552 3.22
824 1 64.22 55.6162 2.56
825 1 59.28 59.8943 3.22
826 1 60.515 62.0334 2.56
827 1 62.985 62.0334 3.22
828 1 64.22 59.8943 2.56
829 1 59.28 64.1725 3.22
830 1 60.515 66.3116 2.56
831 1 62.985 66.3116 3.22
832 1 64.22 64.1725 2.56
833 1 59.28 68.4506 3.22
834 1 60.515 70.5897 2.56
835 1 62.985 70.5897 3.22
836 1 64.22 68.4506 2.56
837 1 59.28 72.7288 3.22
838 1 60.515 74.8679 2.56
839 1 62.985 74.8679 3.22
840 1 64.22 72.7288 2.56
841 1 59.28 77.007 3.22
842 1 60.515 79.1461 2.56
843 1 62.985 79.1461 3.22
844 1 64.22 77.007 2.56
845 1 59.28 81.2851 3.22
846 1 60.515 83.4242 2.56
847 1 62.985 83.4242 3.22
848 1 64.22 81.2851 2.56
849 1 59.28 85.5633 3.22
850 1 60.515 87.7024 2.56
851 1 62.985 87.7024 3.22
852 1 64.22 85.5633 2.56
853 1 59.28 89.8415 3.22
854 1 60.515 91.9806 2.56
855 1 62.985 91.9806 3.22
856 1 64.22 89.8415 2.56
857 1 59.28 94.1196 3.22
858 1 60.515 96.2587 2.56
859 1 62.985 96.2587 3.22
860 1 64.22 94.1196 2.56
861 1 59.28 98.3978 3.22
862 1 60.515 100.537 2.56
863 1 62.985 100.537 3.22
864 1 64.22 98.3978 2.56
865 1 66.69 0 3.22
866 1 67.925 2.13908 2.56
867 1 70.395 2.13908 3.22
868 1 71.63 0 2.56
869 1 66.69 4.27817 3.22
870 1 67.925 6.41725 2.56
871 1 70.395 6.41725 3.22
872 1 71.63 4.27817 2.56
873 1 66.69 8.55633 3.22
874 1 67.925 10.6954 2.56
875 1 70.395 10.6954 3.22
876 1 71.63 8.55633 2.56
877 1 66.69 12.8345 3.22
878 1 67.925 14.9736 2.56
879 1 70.395 14.9736 3.22
880 1 71.63 12.8345 2.56
881 1 66.69 17.1127 3.22
882 1 67.925 19.2517 2.56
883 1 70.395 19.2517 3.22
884 1 71.63 17.1127 2.56
885 1 66.69 21.3908 3.22
886 1 67.925 23.5299 2.56
887 1 70.395 23.5299 3.22
888 1 71.63 21.3908 2.56
889 1 66.69 25.669 3.22
890 1 67.925 27.8081 2.56
891 1 70.395 27.8081 3.22
892 1 71.63 25.669 2.56
893 1 66.69 29.9472 3.22
894 1 67.925 32.0862 2.56
895 1 70.395 32.0862 3.22
896 1 71.63 29.9472 2.56
897 1 66.69 34.2253 3.22
898 1 67.925 36.3644 2.56
899 1 70.395 36.3644 3.22
900 1 71.63 34.2253 2.56
901 1 66.69 38.5035 3.22
902 1 67.925 40.6426 2.56
903 1 70.395 40.6426 3.22
904 1 71.63 38.5035 2.56
905 1 66.69 42.7817 3.22
906 1 67.925 44.9207 2.56
907 1 70.395 44.9207 3.22
908 1 71.63 42.7817 2.56
909 1 66.69 47.0598 3.22
910 1 67.925 49.1989 2.56
911 1 70.395 49.1989 3.22
912 1 71.63 47.0598 2.56
913 1 66.69 51.338 3.22
914 1 67.925 53.4771 2.56
915 1 70.395 53.4771 3.22
916 1 71.63 51.338 2.56
917 1 66.69 55.6162 3.22
918 1 67.925 57.7552 2.56
919 1 70.395 57.7552 3.22
920 1 71.63 55.6162 2.56
921 1 66.69 59.8943 3.22
922 1 67.925 62.0334 2.56
923 1 70.395 62.0334 3.22
924 1 71.63 59.8943 2.56
925 1 66.69 64.1725 3.22
926 1 67.925 66.3116 2.56
927 1 70.395 66.3116 3.22
928 1 71.63 64.1725 2.56
929 1 66.69 68.4506 3.22
930 1 67.925 70.5897 2.56
931 1 70.395 70.5897 3.22
932 1 71.63 68.4506 2.56
933 1 66.69 72.7288 3.22
934 1 67.925 74.8679 2.56
935 1 70.395 74.8679 3.22
936 1 71.63 72.7288 2.56
937 1 66.69 77.007 3.22
938 1 67.925 79.1461 2.56
939 1 70.395 79.1461 3.22
940 1 71.63 77.007 2.56
941 1 66.69 81.2851 3.22
942 1 67.925 83.4242 2.56
943 1 70.395 83.4242 3.22
944 1 71.63 81.2851 2.56
945 1 66.69 85.5633 3.22
946 1 67.925 87.7024 2.56
947 1 70.395 87.7024 3.22
948 1 71.63 85.5633 2.56
949 1 66.69 89.8415 3.22
950 1 67.925 91.9806 2.56
951 1 70.395 91.9806 3.22
952 1 71.63 89.8415 2.56
953 1 66.69 94.1196 3.22
954 1 67.925 96.2587 2.56
955 1 70.395 96.2587 3.22
956 1 71.63 94.1196 2.56
957 1 66.69 98.3978 3.22
958 1 67.925 100.537 2.56
959 1 70.395 100.537 3.22
960 1 71.63 98.3978 2.56
961 1 74.1 0 3.22
962 1 75.335 2.13908 2.56
963 1 77.805 2.13908 3.22
964 1 79.04 0 2.56
965 1 74.1 4.27817 3.22
966 1 75.335 6.41725 2.56
967 1 77.805 6.41725 3.22
968 1 79.04 4.27817 2.56
969 1 74.1 8.55633 3.22
970 1 75.335 10.6954 2.56
971 1 77.805 10.6954 3.22
972 1 79.04 8.55633 2.56
973 1 74.1 12.8345 3.22
974 1 75.335 14.9736 2.56
975 1 77.805 14.9736 3.22
976 1 79.04 12.8345 2.56
977 1 74.1 17.1127 3.22
978 1 75.335 19.2517 2.56
979 1 77.805 19.2517 3.22
980 1 79.04 17.1127 2.56
981 1 74.1 21.3908 3.22
982 1 75.335 23.5299 2.56
983 1 77.805 23.5299 3.22
984 1 79.04 21.3908 2.56
985 1 74.1 25.669 3.22
986 1 75.335 27.8081 2.56
987 1 77.805 27.8081 3.22
988 1 79.04 25.669 2.56
989 1 74.1 29.9472 3.22
990 1 75.335 32.0862 2.56
991 1 77.805 32.0862 3.22
992 1 79.04 29.9472 2.56
993 1 74.1 34.2253 3.22
994 1 75.335 36.3644 2.56
995 1 77.805 36.3644 3.22
996 1 79.04 34.2253 2.56
997 1 74.1 38.5035 3.22
998 1 75.335 40.6426 2.56
999 1 77.805 40.6426 3.22
1000 1 79.04 38.5035 2.56
1001 1 74.1 42.7817 3.22
1002 1 75.335 44.9207 2.56
1003 1 77.805 44.9207 3.22
1004 1 79.04 42.7817 2.56
1005 1 74.1 47.0598 3.22
1006 1 75.335 49.1989 2.56
1007 1 77.805 49.1989 3.22
1008 1 79.04 47.0598 2.56
1009 1 74.1 51.338 3.22
1010 1 75.335 53.4771 2.56
1011 1 77.805 53.4771 3.22
1012 1 79.04 51.338 2.56
1013 1 74.1 55.6162 3.22
1014 1 75.335 57.7552 2.56
1015 1 77.805 57.7552 3.22
1016 1 79.04 55.6162 2.56
1017 1 74.1 59.8943 3.22
1018 1 75.335 62.0334 2.56
1019 1 77.805 62.0334 3.22
1020 1 79.04 59.8943 2.56
1021 1 74.1 64.1725 3.22
1022 1 75.335 66.3116 2.56
1023 1 77.805 66.3116 3.22
1024 1 79.04 64.1725 2.56
1025 1 74.1 68.4506 3.22
1026 1 75.335 70.5897 2.56
1027 1 77.805 70.5897 3.22
1028 1 79.04 68.4506 2.56
1029 1 74.1 72.7288 3.22
1030 1 75.335 74.8679 2.56
1031 1 77.805 74.8679 3.22
1032 1 79.04 72.7288 2.56
1033 1 74.1 77.007 3.22
1034 1 75.335 79.1461 2.56
1035 1 77.805 79.1461 3.22
1036 1 79.04 77.007 2.56
1037 1 74.1 81.2851 3.22
1038 1 75.335 83.4242 2.56
1039 1 77.805 83.4242 3.22
1040 1 79.04 81.2851 2.56
1041 1 74.1 85.5633 3.22
1042 1 75.335 87.7024 2.56
1043 1 77.805 87.7024 3.22
1044 1 79.04 85.5633 2.56
1045 1 74.1 89.8415 3.22
1046 1 75.335 91.9806 2.56
1047 1 77.805 91.9806 3.22
1048 1 79.04 89.8415 2.56
1049 1 74.1 94.1196 3.22
1050 1 75.335 96.2587 2.56
1051 1 77.805 96.2587 3.22
1052 1 79.04 94.1196 2.56
1053 1 74.1 98.3978 3.22
1054 1 75.335 100.537 2.56
1055 1 77.805 100.537 3.22
1056 1 79.04 98.3978 2.56
1057 1 81.51 0 3.22
1058 1 82.745 2.13908 2.56
1059 1 85.215 2.13908 3.22
1060 1 86.45 0 2.56
1061 1 81.51 4.27817 3.22
1062 1 82.745 6.41725 2.56
1063 1 85.215 6.41725 3.22
1064 1 86.45 4.27817 2.56
1065 1 81.51 8.55633 3.22
1066 1 82.745 10.6954 2.56
1067 1 85.215 10.6954 3.22
1068 1 86.45 8.55633 2.56
1069 1 81.51 12.8345 3.22
1070 1 82.745 14.9736 2.56
1071 1 85.215 14.9736 3.22
1072 1 86.45 12.8345 2.56
1073 1 81.51 17.1127 3.22
1074 1 82.745 19.2517 2.56
1075 1 85.215 19.2517 3.22
1076 1 86.45 17.1127 2.56
1077 1 81.51 21.3908 3.22
1078 1 82.745 23.5299 2.56
1079 1 85.215 23.5299 3.22
1080 1 86.45 21.3908 2.56
1081 1 81.51 25.669 3.22
1082 1 82.745 27.8081 2.56
1083 1 85.215 27.8081 3.22
1084 1 86.45 25.669 2.56
1085 1 81.51 29.9472 3.22
1086 1 82.745 32.0862 2.56
1087 1 85.215 32.0862 3.22
1088 1 86.45 29.9472 2.56
1089 1 81.51 34.2253 3.22
1090 1 82.745 36.3644 2.56
1091 1 85.215 36.3644 3.22
1092 1 86.45 34.2253 2.56
1093 1 81.51 38.5035 3.22
1094 1 82.745 40.6426 2.56
1095 1 85.215 40.6426 3.22
1096 1 86.45 38.5035 2.56
1097 1 81.51 42.7817 3.22
1098 1 82.745 44.9207 2.56
1099 1 85.215 44.9207 3.22
1100 1 86.45 42.7817 2.56
1101 1 81.51 47.0598 3.22
1102 1 82.745 49.1989 2.56
1103 1 85.215 49.1989 3.22
1104 1 86.45 47.0598 2.56
1105 1 81.51 51.338 3.22
1106 1 82.745 53.4771 2.56
1107 1 85.215 53.4771 3.22
1108 1 86.45 51.338 2.56
1109 1 81.51 55.6162 3.22
1110 1 82.745 57.7552 2.56
1111 1 85.215 57.7552 3.22
1112 1 86.45 55.6162 2.56
1113 1 81.51 59.8943 3.22
1114 1 82.745 62.0334 2.56
1115 1 85.215 62.0334 3.22
1116 1 86.45 59.8943 2.56
1117 1 81.51 64.1725 3.22
1118 1 82.745 66.3116 2.56
1119 1 85.215 66.3116 3.22
1120 1 86.45 64.1725 2.56
1121 1 81.51 68.4506 3.22
1122 1 82.745 70.5897 2.56
1123 1 85.215 70.5897 3.22
1124 1 86.45 68.4506 2.56
1125 1 81.51 72.7288 3.22
1126 1 82.745 74.8679 2.56
1127 1 85.215 74.8679 3.22
1128 1 86.45 72.7288 2.56
1129 1 81.51 77.007 3.22
1130 1 82.745 79.1461 2.56
1131 1 85.215 79.1461 3.22
1132 1 86.45 77.007 2.56
1133 1 81.51 81.2851 3.22
1134 1 82.745 83.4242 2.56
1135 1 85.215 83.4242 3.22
1136 1 86.45 81.2851 2.56
1137 1 81.51 85.5633 3.22
1138 1 82.745 87.7024 2.56
1139 1 85.215 87.7024 3.22
1140 1 86.45 85.5633 2.56
1141 1 81.51 89.8415 3.22
1142 1 82.745 91.9806 2.56
1143 1 85.215 91.9806 3.22
1144 1 86.45 89.8415 2.56
1145 1 81.51 94.1196 3.22
1146 1 82.745 96.2587 2.56
1147 1 85.215 96.2587 3.22
1148 1 86.45 94.1196 2.56
1149 1 81.51 98.3978 3.22
1150 1 82.745 100.537 2.56
1151 1 85.215 100.537 3.22
1152 1 86.45 98.3978 2.56
1153 1 88.92 0 3.22
1154 1 90.155 2.13908 2.56
1155 1 92.625 2.13908 3.22
1156 1 93.86 0 2.56
1157 1 88.92 4.27817 3.22
1158 1 90.155 6.41725 2.56
1159 1 92.625 6.41725 3.22
1160 1 93.86 4.27817 2.56
1161 1 88.92 8.55633 3.22
1162 1 90.155 10.6954 2.56
1163 1 92.625 10.6954 3.22
1164 1 93.86 8.55633 2.56
1165 1 88.92 12.8345 3.22
1166 1 90.155 14.9736 2.56
1167 1 92.625 14.9736 3.22
1168 1 93.86 12.8345 2.56
1169 1 88.92 17.1127 3.22
1170 1 90.155 19.2517 2.56
1171 1 92.625 19.2517 3.22
1172 1 93.86 17.1127 2.56
1173 1 88.92 21.3908 3.22
1174 1 90.155 23.5299 2.56
1175 1 92.625 23.5299 3.22
1176 1 93.86 21.3908 2.56
1177 1 88.92 25.669 3.22
1178 1 90.155 27.8081 2.56
1179 1 92.625 27.8081 3.22
1180 1 93.86 25.669 2.56
1181 1 88.92 29.9472 3.22
1182 1 90.155 32.0862 2.56
1183 1 92.625 32.0862 3.22
1184 1 93.86 29.9472 2.56
1185 1 88.92 34.2253 3.22