#Silicene 1.020000e+01nm x 1.020000e+01nm, a=2.28, lx=15, ly=26

3120 atoms

2 atom types

0 102.6 xlo xhi
0 102.676 ylo yhi
-96 96 zlo zhi

Masses

1 28.0855
2 28.0855

Atoms

1 1 0 0 4
2 1 1.14 1.97454 4
3 1 3.42 1.97454 4
4 1 4.56 0 4
5 1 0 3.94908 4
6 1 1.14 5.92361 4
7 1 3.42 5.92361 4
8 1 4.56 3.94908 4
9 1 0 7.89815 4
10 1 1.14 9.87269 4
11 1 3.42 9.87269 4
12 1 4.56 7.89815 4
13 1 0 11.8472 4
14 1 1.14 13.8218 4
15 1 3.42 13.8218 4
16 1 4.56 11.8472 4
17 1 0 15.7963 4
18 1 1.14 17.7708 4
19 1 3.42 17.7708 4
20 1 4.56 15.7963 4
21 1 0 19.7454 4
22 1 1.14 21.7199 4
23 1 3.42 21.7199 4
24 1 4.56 19.7454 4
25 1 0 23.6945 4
26 1 1.14 25.669 4
27 1 3.42 25.669 4
28 1 4.56 23.6945 4
29 1 0 27.6435 4
30 1 1.14 29.6181 4
31 1 3.42 29.6181 4
32 1 4.56 27.6435 4
33 1 0 31.5926 4
34 1 1.14 33.5671 4
35 1 3.42 33.5671 4
36 1 4.56 31.5926 4
37 1 0 35.5417 4
38 1 1.14 37.5162 4
39 1 3.42 37.5162 4
40 1 4.56 35.5417 4
41 1 0 39.4908 4
42 1 1.14 41.4653 4
43 1 3.42 41.4653 4
44 1 4.56 39.4908 4
45 1 0 43.4398 4
46 1 1.14 45.4144 4
47 1 3.42 45.4144 4
48 1 4.56 43.4398 4
49 1 0 47.3889 4
50 1 1.14 49.3634 4
51 1 3.42 49.3634 4
52 1 4.56 47.3889 4
53 1 0 51.338 4
54 1 1.14 53.3125 4
55 1 3.42 53.3125 4
56 1 4.56 51.338 4
57 1 0 55.2871 4
58 1 1.14 57.2616 4
59 1 3.42 57.2616 4
60 1 4.56 55.2871 4
61 1 0 59.2361 4
62 1 1.14 61.2107 4
63 1 3.42 61.2107 4
64 1 4.56 59.2361 4
65 1 0 63.1852 4
66 1 1.14 65.1598 4
67 1 3.42 65.1598 4
68 1 4.56 63.1852 4
69 1 0 67.1343 4
70 1 1.14 69.1088 4
71 1 3.42 69.1088 4
72 1 4.56 67.1343 4
73 1 0 71.0834 4
74 1 1.14 73.0579 4
75 1 3.42 73.0579 4
76 1 4.56 71.0834 4
77 1 0 75.0324 4
78 1 1.14 77.007 4
79 1 3.42 77.007 4
80 1 4.56 75.0324 4
81 1 0 78.9815 4
82 1 1.14 80.9561 4
83 1 3.42 80.9561 4
84 1 4.56 78.9815 4
85 1 0 82.9306 4
86 1 1.14 84.9051 4
87 1 3.42 84.9051 4
88 1 4.56 82.9306 4
89 1 0 86.8797 4
90 1 1.14 88.8542 4
91 1 3.42 88.8542 4
92 1 4.56 86.8797 4
93 1 0 90.8287 4
94 1 1.14 92.8033 4
95 1 3.42 92.8033 4
96 1 4.56 90.8287 4
97 1 0 94.7778 4
98 1 1.14 96.7524 4
99 1 3.42 96.7524 4
100 1 4.56 94.7778 4
101 1 0 98.7269 4
102 1 1.14 100.701 4
103 1 3.42 100.701 4
104 1 4.56 98.7269 4
105 1 6.84 0 4
106 1 7.98 1.97454 4
107 1 10.26 1.97454 4
108 1 11.4 0 4
109 1 6.84 3.94908 4
110 1 7.98 5.92361 4
111 1 10.26 5.92361 4
112 1 11.4 3.94908 4
113 1 6.84 7.89815 4
114 1 7.98 9.87269 4
115 1 10.26 9.87269 4
116 1 11.4 7.89815 4
117 1 6.84 11.8472 4
118 1 7.98 13.8218 4
119 1 10.26 13.8218 4
120 1 11.4 11.8472 4
121 1 6.84 15.7963 4
122 1 7.98 17.7708 4
123 1 10.26 17.7708 4
124 1 11.4 15.7963 4
125 1 6.84 19.7454 4
126 1 7.98 21.7199 4
127 1 10.26 21.7199 4
128 1 11.4 19.7454 4
129 1 6.84 23.6945 4
130 1 7.98 25.669 4
131 1 10.26 25.669 4
132 1 11.4 23.6945 4
133 1 6.84 27.6435 4
134 1 7.98 29.6181 4
135 1 10.26 29.6181 4
136 1 11.4 27.6435 4
137 1 6.84 31.5926 4
138 1 7.98 33.5671 4
139 1 10.26 33.5671 4
140 1 11.4 31.5926 4
141 1 6.84 35.5417 4
142 1 7.98 37.5162 4
143 1 10.26 37.5162 4
144 1 11.4 35.5417 4
145 1 6.84 39.4908 4
146 1 7.98 41.4653 4
147 1 10.26 41.4653 4
148 1 11.4 39.4908 4
149 1 6.84 43.4398 4
150 1 7.98 45.4144 4
151 1 10.26 45.4144 4
152 1 11.4 43.4398 4
153 1 6.84 47.3889 4
154 1 7.98 49.3634 4
155 1 10.26 49.3634 4
156 1 11.4 47.3889 4
157 1 6.84 51.338 4
158 1 7.98 53.3125 4
159 1 10.26 53.3125 4
160 1 11.4 51.338 4
161 1 6.84 55.2871 4
162 1 7.98 57.2616 4
163 1 10.26 57.2616 4
164 1 11.4 55.2871 4
165 1 6.84 59.2361 4
166 1 7.98 61.2107 4
167 1 10.26 61.2107 4
168 1 11.4 59.2361 4
169 1 6.84 63.1852 4
170 1 7.98 65.1598 4
171 1 10.26 65.1598 4
172 1 11.4 63.1852 4
173 1 6.84 67.1343 4
174 1 7.98 69.1088 4
175 1 10.26 69.1088 4
176 1 11.4 67.1343 4
177 1 6.84 71.0834 4
178 1 7.98 73.0579 4
179 1 10.26 73.0579 4
180 1 11.4 71.0834 4
181 1 6.84 75.0324 4
182 1 7.98 77.007 4
183 1 10.26 77.007 4
184 1 11.4 75.0324 4
185 1 6.84 78.9815 4
186 1 7.98 80.9561 4
187 1 10.26 80.9561 4
188 1 11.4 78.9815 4
189 1 6.84 82.9306 4
190 1 7.98 84.9051 4
191 1 10.26 84.9051 4
192 1 11.4 82.9306 4
193 1 6.84 86.8797 4
194 1 7.98 88.8542 4
195 1 10.26 88.8542 4
196 1 11.4 86.8797 4
197 1 6.84 90.8287 4
198 1 7.98 92.8033 4
199 1 10.26 92.8033 4
200 1 11.4 90.8287 4
201 1 6.84 94.7778 4
202 1 7.98 96.7524 4
203 1 10.26 96.7524 4
204 1 11.4 94.7778 4
205 1 6.84 98.7269 4
206 1 7.98 100.701 4
207 1 10.26 100.701 4
208 1 11.4 98.7269 4
209 1 13.68 0 4
210 1 14.82 1.97454 4
211 1 17.1 1.97454 4
212 1 18.24 0 4
213 1 13.68 3.94908 4
214 1 14.82 5.92361 4
215 1 17.1 5.92361 4
216 1 18.24 3.94908 4
217 1 13.68 7.89815 4
218 1 14.82 9.87269 4
219 1 17.1 9.87269 4
220 1 18.24 7.89815 4
221 1 13.68 11.8472 4
222 1 14.82 13.8218 4
223 1 17.1 13.8218 4
224 1 18.24 11.8472 4
225 1 13.68 15.7963 4
226 1 14.82 17.7708 4
227 1 17.1 17.7708 4
228 1 18.24 15.7963 4
229 1 13.68 19.7454 4
230 1 14.82 21.7199 4
231 1 17.1 21.7199 4
232 1 18.24 19.7454 4
233 1 13.68 23.6945 4
234 1 14.82 25.669 4
235 1 17.1 25.669 4
236 1 18.24 23.6945 4
237 1 13.68 27.6435 4
238 1 14.82 29.6181 4
239 1 17.1 29.6181 4
240 1 18.24 27.6435 4
241 1 13.68 31.5926 4
242 1 14.82 33.5671 4
243 1 17.1 33.5671 4
244 1 18.24 31.5926 4
245 1 13.68 35.5417 4
246 1 14.82 37.5162 4
247 1 17.1 37.5162 4
248 1 18.24 35.5417 4
249 1 13.68 39.4908 4
250 1 14.82 41.4653 4
251 1 17.1 41.4653 4
252 1 18.24 39.4908 4
253 1 13.68 43.4398 4
254 1 14.82 45.4144 4
255 1 17.1 45.4144 4
256 1 18.24 43.4398 4
257 1 13.68 47.3889 4
258 1 14.82 49.3634 4
259 1 17.1 49.3634 4
260 1 18.24 47.3889 4
261 1 13.68 51.338 4
262 1 14.82 53.3125 4
263 1 17.1 53.3125 4
264 1 18.24 51.338 4
265 1 13.68 55.2871 4
266 1 14.82 57.2616 4
267 1 17.1 57.2616 4
268 1 18.24 55.2871 4
269 1 13.68 59.2361 4
270 1 14.82 61.2107 4
271 1 17.1 61.2107 4
272 1 18.24 59.2361 4
273 1 13.68 63.1852 4
274 1 14.82 65.1598 4
275 1 17.1 65.1598 4
276 1 18.24 63.1852 4
277 1 13.68 67.1343 4
278 1 14.82 69.1088 4
279 1 17.1 69.1088 4
280 1 18.24 67.1343 4
281 1 13.68 71.0834 4
282 1 14.82 73.0579 4
283 1 17.1 73.0579 4
284 1 18.24 71.0834 4
285 1 13.68 75.0324 4
286 1 14.82 77.007 4
287 1 17.1 77.007 4
288 1 18.24 75.0324 4
289 1 13.68 78.9815 4
290 1 14.82 80.9561 4
291 1 17.1 80.9561 4
292 1 18.24 78.9815 4
293 1 13.68 82.9306 4
294 1 14.82 84.9051 4
295 1 17.1 84.9051 4
296 1 18.24 82.9306 4
297 1 13.68 86.8797 4
298 1 14.82 88.8542 4
299 1 17.1 88.8542 4
300 1 18.24 86.8797 4
301 1 13.68 90.8287 4
302 1 14.82 92.8033 4
303 1 17.1 92.8033 4
304 1 18.24 90.8287 4
305 1 13.68 94.7778 4
306 1 14.82 96.7524 4
307 1 17.1 96.7524 4
308 1 18.24 94.7778 4
309 1 13.68 98.7269 4
310 1 14.82 100.701 4
311 1 17.1 100.701 4
312 1 18.24 98.7269 4
313 1 20.52 0 4
314 1 21.66 1.97454 4
315 1 23.94 1.97454 4
316 1 25.08 0 4
317 1 20.52 3.94908 4
318 1 21.66 5.92361 4
319 1 23.94 5.92361 4
320 1 25.08 3.94908 4
321 1 20.52 7.89815 4
322 1 21.66 9.87269 4
323 1 23.94 9.87269 4
324 1 25.08 7.89815 4
325 1 20.52 11.8472 4
326 1 21.66 13.8218 4
327 1 23.94 13.8218 4
328 1 25.08 11.8472 4
329 1 20.52 15.7963 4
330 1 21.66 17.7708 4
331 1 23.94 17.7708 4
332 1 25.08 15.7963 4
333 1 20.52 19.7454 4
334 1 21.66 21.7199 4
335 1 23.94 21.7199 4
336 1 25.08 19.7454 4
337 1 20.52 23.6945 4
338 1 21.66 25.669 4
339 1 23.94 25.669 4
340 1 25.08 23.6945 4
341 1 20.52 27.6435 4
342 1 21.66 29.6181 4
343 1 23.94 29.6181 4
344 1 25.08 27.6435 4
345 1 20.52 31.5926 4
346 1 21.66 33.5671 4
347 1 23.94 33.5671 4
348 1 25.08 31.5926 4
349 1 20.52 35.5417 4
350 1 21.66 37.5162 4
351 1 23.94 37.5162 4
352 1 25.08 35.5417 4
353 1 20.52 39.4908 4
354 1 21.66 41.4653 4
355 1 23.94 41.4653 4
356 1 25.08 39.4908 4
357 1 20.52 43.4398 4
358 1 21.66 45.4144 4
359 1 23.94 45.4144 4
360 1 25.08 43.4398 4
361 1 20.52 47.3889 4
362 1 21.66 49.3634 4
363 1 23.94 49.3634 4
364 1 25.08 47.3889 4
365 1 20.52 51.338 4
366 1 21.66 53.3125 4
367 1 23.94 53.3125 4
368 1 25.08 51.338 4
369 1 20.52 55.2871 4
370 1 21.66 57.2616 4
371 1 23.94 57.2616 4
372 1 25.08 55.2871 4
373 1 20.52 59.2361 4
374 1 21.66 61.2107 4
375 1 23.94 61.2107 4
376 1 25.08 59.2361 4
377 1 20.52 63.1852 4
378 1 21.66 65.1598 4
379 1 23.94 65.1598 4
380 1 25.08 63.1852 4
381 1 20.52 67.1343 4
382 1 21.66 69.1088 4
383 1 23.94 69.1088 4
384 1 25.08 67.1343 4
385 1 20.52 71.0834 4
386 1 21.66 73.0579 4
387 1 23.94 73.0579 4
388 1 25.08 71.0834 4
389 1 20.52 75.0324 4
390 1 21.66 77.007 4
391 1 23.94 77.007 4
392 1 25.08 75.0324 4
393 1 20.52 78.9815 4
394 1 21.66 80.9561 4
395 1 23.94 80.9561 4
396 1 25.08 78.9815 4
397 1 20.52 82.9306 4
398 1 21.66 84.9051 4
399 1 23.94 84.9051 4
400 1 25.08 82.9306 4
401 1 20.52 86.8797 4
402 1 21.66 88.8542 4
403 1 23.94 88.8542 4
404 1 25.08 86.8797 4
405 1 20.52 90.8287 4
406 1 21.66 92.8033 4
407 1 23.94 92.8033 4
408 1 25.08 90.8287 4
409 1 20.52 94.7778 4
410 1 21.66 96.7524 4
411 1 23.94 96.7524 4
412 1 25.08 94.7778 4
413 1 20.52 98.7269 4
414 1 21.66 100.701 4
415 1 23.94 100.701 4
416 1 25.08 98.7269 4
417 1 27.36 0 4
418 1 28.5 1.97454 4
419 1 30.78 1.97454 4
420 1 31.92 0 4
421 1 27.36 3.94908 4
422 1 28.5 5.92361 4
423 1 30.78 5.92361 4
424 1 31.92 3.94908 4
425 1 27.36 7.89815 4
426 1 28.5 9.87269 4
427 1 30.78 9.87269 4
428 1 31.92 7.89815 4
429 1 27.36 11.8472 4
430 1 28.5 13.8218 4
431 1 30.78 13.8218 4
432 1 31.92 11.8472 4
433 1 27.36 15.7963 4
434 1 28.5 17.7708 4
435 1 30.78 17.7708 4
436 1 31.92 15.7963 4
437 1 27.36 19.7454 4
438 1 28.5 21.7199 4
439 1 30.78 21.7199 4
440 1 31.92 19.7454 4
441 1 27.36 23.6945 4
442 1 28.5 25.669 4
443 1 30.78 25.669 4
444 1 31.92 23.6945 4
445 1 27.36 27.6435 4
446 1 28.5 29.6181 4
447 1 30.78 29.6181 4
448 1 31.92 27.6435 4
449 1 27.36 31.5926 4
450 1 28.5 33.5671 4
451 1 30.78 33.5671 4
452 1 31.92 31.5926 4
453 1 27.36 35.5417 4
454 1 28.5 37.5162 4
455 1 30.78 37.5162 4
456 1 31.92 35.5417 4
457 1 27.36 39.4908 4
458 1 28.5 41.4653 4
459 1 30.78 41.4653 4
460 1 31.92 39.4908 4
461 1 27.36 43.4398 4
462 1 28.5 45.4144 4
463 1 30.78 45.4144 4
464 1 31.92 43.4398 4
465 1 27.36 47.3889 4
466 1 28.5 49.3634 4
467 1 30.78 49.3634 4
468 1 31.92 47.3889 4
469 1 27.36 51.338 4
470 1 28.5 53.3125 4
471 1 30.78 53.3125 4
472 1 31.92 51.338 4
473 1 27.36 55.2871 4
474 1 28.5 57.2616 4
475 1 30.78 57.2616 4
476 1 31.92 55.2871 4
477 1 27.36 59.2361 4
478 1 28.5 61.2107 4
479 1 30.78 61.2107 4
480 1 31.92 59.2361 4
481 1 27.36 63.1852 4
482 1 28.5 65.1598 4
483 1 30.78 65.1598 4
484 1 31.92 63.1852 4
485 1 27.36 67.1343 4
486 1 28.5 69.1088 4
487 1 30.78 69.1088 4
488 1 31.92 67.1343 4
489 1 27.36 71.0834 4
490 1 28.5 73.0579 4
491 1 30.78 73.0579 4
492 1 31.92 71.0834 4
493 1 27.36 75.0324 4
494 1 28.5 77.007 4
495 1 30.78 77.007 4
496 1 31.92 75.0324 4
497 1 27.36 78.9815 4
498 1 28.5 80.9561 4
499 1 30.78 80.9561 4
500 1 31.92 78.9815 4
501 1 27.36 82.9306 4
502 1 28.5 84.9051 4
503 1 30.78 84.9051 4
504 1 31.92 82.9306 4
505 1 27.36 86.8797 4
506 1 28.5 88.8542 4
507 1 30.78 88.8542 4
508 1 31.92 86.8797 4
509 1 27.36 90.8287 4
510 1 28.5 92.8033 4
511 1 30.78 92.8033 4
512 1 31.92 90.8287 4
513 1 27.36 94.7778 4
514 1 28.5 96.7524 4
515 1 30.78 96.7524 4
516 1 31.92 94.7778 4
517 1 27.36 98.7269 4
518 1 28.5 100.701 4
519 1 30.78 100.701 4
520 1 31.92 98.7269 4
521 1 34.2 0 4
522 1 35.34 1.97454 4
523 1 37.62 1.97454 4
524 1 38.76 0 4
525 1 34.2 3.94908 4
526 1 35.34 5.92361 4
527 1 37.62 5.92361 4
528 1 38.76 3.94908 4
529 1 34.2 7.89815 4
530 1 35.34 9.87269 4
531 1 37.62 9.87269 4
532 1 38.76 7.89815 4
533 1 34.2 11.8472 4
534 1 35.34 13.8218 4
535 1 37.62 13.8218 4
536 1 38.76 11.8472 4
537 1 34.2 15.7963 4
538 1 35.34 17.7708 4
539 1 37.62 17.7708 4
540 1 38.76 15.7963 4
541 1 34.2 19.7454 4
542 1 35.34 21.7199 4
543 1 37.62 21.7199 4
544 1 38.76 19.7454 4
545 1 34.2 23.6945 4
546 1 35.34 25.669 4
547 1 37.62 25.669 4
548 1 38.76 23.6945 4
549 1 34.2 27.6435 4
550 1 35.34 29.6181 4
551 1 37.62 29.6181 4
552 1 38.76 27.6435 4
553 1 34.2 31.5926 4
554 1 35.34 33.5671 4
555 1 37.62 33.5671 4
556 1 38.76 31.5926 4
557 1 34.2 35.5417 4
558 1 35.34 37.5162 4
559 1 37.62 37.5162 4
560 1 38.76 35.5417 4
561 1 34.2 39.4908 4
562 1 35.34 41.4653 4
563 1 37.62 41.4653 4
564 1 38.76 39.4908 4
565 1 34.2 43.4398 4
566 1 35.34 45.4144 4
567 1 37.62 45.4144 4
568 1 38.76 43.4398 4
569 1 34.2 47.3889 4
570 1 35.34 49.3634 4
571 1 37.62 49.3634 4
572 1 38.76 47.3889 4
573 1 34.2 51.338 4
574 1 35.34 53.3125 4
575 1 37.62 53.3125 4
576 1 38.76 51.338 4
577 1 34.2 55.2871 4
578 1 35.34 57.2616 4
579 1 37.62 57.2616 4
580 1 38.76 55.2871 4
581 1 34.2 59.2361 4
582 1 35.34 61.2107 4
583 1 37.62 61.2107 4
584 1 38.76 59.2361 4
585 1 34.2 63.1852 4
586 1 35.34 65.1598 4
587 1 37.62 65.1598 4
588 1 38.76 63.1852 4
589 1 34.2 67.1343 4
590 1 35.34 69.1088 4
591 1 37.62 69.1088 4
592 1 38.76 67.1343 4
593 1 34.2 71.0834 4
594 1 35.34 73.0579 4
595 1 37.62 73.0579 4
596 1 38.76 71.0834 4
597 1 34.2 75.0324 4
598 1 35.34 77.007 4
599 1 37.62 77.007 4
600 1 38.76 75.0324 4
601 1 34.2 78.9815 4
602 1 35.34 80.9561 4
603 1 37.62 80.9561 4
604 1 38.76 78.9815 4
605 1 34.2 82.9306 4
606 1 35.34 84.9051 4
607 1 37.62 84.9051 4
608 1 38.76 82.9306 4
609 1 34.2 86.8797 4
610 1 35.34 88.8542 4
611 1 37.62 88.8542 4
612 1 38.76 86.8797 4
613 1 34.2 90.8287 4
614 1 35.34 92.8033 4
615 1 37.62 92.8033 4
616 1 38.76 90.8287 4
617 1 34.2 94.7778 4
618 1 35.34 96.7524 4
619 1 37.62 96.7524 4
620 1 38.76 94.7778 4
621 1 34.2 98.7269 4
622 1 35.34 100.701 4
623 1 37.62 100.701 4
624 1 38.76 98.7269 4
625 1 41.04 0 4
626 1 42.18 1.97454 4
627 1 44.46 1.97454 4
628 1 45.6 0 4
629 1 41.04 3.94908 4
630 1 42.18 5.92361 4
631 1 44.46 5.92361 4
632 1 45.6 3.94908 4
633 1 41.04 7.89815 4
634 1 42.18 9.87269 4
635 1 44.46 9.87269 4
636 1 45.6 7.89815 4
637 1 41.04 11.8472 4
638 1 42.18 13.8218 4
639 1 44.46 13.8218 4
640 1 45.6 11.8472 4
641 1 41.04 15.7963 4
642 1 42.18 17.7708 4
643 1 44.46 17.7708 4
644 1 45.6 15.7963 4
645 1 41.04 19.7454 4
646 1 42.18 21.7199 4
647 1 44.46 21.7199 4
648 1 45.6 19.7454 4
649 1 41.04 23.6945 4
650 1 42.18 25.669 4
651 1 44.46 25.669 4
652 1 45.6 23.6945 4
653 1 41.04 27.6435 4
654 1 42.18 29.6181 4
655 1 44.46 29.6181 4
656 1 45.6 27.6435 4
657 1 41.04 31.5926 4
658 1 42.18 33.5671 4
659 1 44.46 33.5671 4
660 1 45.6 31.5926 4
661 1 41.04 35.5417 4
662 1 42.18 37.5162 4
663 1 44.46 37.5162 4
664 1 45.6 35.5417 4
665 1 41.04 39.4908 4
666 1 42.18 41.4653 4
667 1 44.46 41.4653 4
668 1 45.6 39.4908 4
669 1 41.04 43.4398 4
670 1 42.18 45.4144 4
671 1 44.46 45.4144 4
672 1 45.6 43.4398 4
673 1 41.04 47.3889 4
674 1 42.18 49.3634 4
675 1 44.46 49.3634 4
676 1 45.6 47.3889 4
677 1 41.04 51.338 4
678 1 42.18 53.3125 4
679 1 44.46 53.3125 4
680 1 45.6 51.338 4
681 1 41.04 55.2871 4
682 1 42.18 57.2616 4
683 1 44.46 57.2616 4
684 1 45.6 55.2871 4
685 1 41.04 59.2361 4
686 1 42.18 61.2107 4
687 1 44.46 61.2107 4
688 1 45.6 59.2361 4
689 1 41.04 63.1852 4
690 1 42.18 65.1598 4
691 1 44.46 65.1598 4
692 1 45.6 63.1852 4
693 1 41.04 67.1343 4
694 1 42.18 69.1088 4
695 1 44.46 69.1088 4
696 1 45.6 67.1343 4
697 1 41.04 71.0834 4
698 1 42.18 73.0579 4
699 1 44.46 73.0579 4
700 1 45.6 71.0834 4
701 1 41.04 75.0324 4
702 1 42.18 77.007 4
703 1 44.46 77.007 4
704 1 45.6 75.0324 4
705 1 41.04 78.9815 4
706 1 42.18 80.9561 4
707 1 44.46 80.9561 4
708 1 45.6 78.9815 4
709 1 41.04 82.9306 4
710 1 42.18 84.9051 4
711 1 44.46 84.9051 4
712 1 45.6 82.9306 4
713 1 41.04 86.8797 4
714 1 42.18 88.8542 4
715 1 44.46 88.8542 4
716 1 45.6 86.8797 4
717 1 41.04 90.8287 4
718 1 42.18 92.8033 4
719 1 44.46 92.8033 4
720 1 45.6 90.8287 4
721 1 41.04 94.7778 4
722 1 42.18 96.7524 4
723 1 44.46 96.7524 4
724 1 45.6 94.7778 4
725 1 41.04 98.7269 4
726 1 42.18 100.701 4
727 1 44.46 100.701 4
728 1 45.6 98.7269 4
729 1 47.88 0 4
730 1 49.02 1.97454 4
731 1 51.3 1.97454 4
732 1 52.44 0 4
733 1 47.88 3.94908 4
734 1 49.02 5.92361 4
735 1 51.3 5.92361 4
736 1 52.44 3.94908 4
737 1 47.88 7.89815 4
738 1 49.02 9.87269 4
739 1 51.3 9.87269 4
740 1 52.44 7.89815 4
741 1 47.88 11.8472 4
742 1 49.02 13.8218 4
743 1 51.3 13.8218 4
744 1 52.44 11.8472 4
745 1 47.88 15.7963 4
746 1 49.02 17.7708 4
747 1 51.3 17.7708 4
748 1 52.44 15.7963 4
749 1 47.88 19.7454 4
750 1 49.02 21.7199 4
751 1 51.3 21.7199 4
752 1 52.44 19.7454 4
753 1 47.88 23.6945 4
754 1 49.02 25.669 4
755 1 51.3 25.669 4
756 1 52.44 23.6945 4
757 1 47.88 27.6435 4
758 1 49.02 29.6181 4
759 1 51.3 29.6181 4
760 1 52.44 27.6435 4
761 1 47.88 31.5926 4
762 1 49.02 33.5671 4
763 1 51.3 33.5671 4
764 1 52.44 31.5926 4
765 1 47.88 35.5417 4
766 1 49.02 37.5162 4
767 1 51.3 37.5162 4
768 1 52.44 35.5417 4
769 1 47.88 39.4908 4
770 1 49.02 41.4653 4
771 1 51.3 41.4653 4
772 1 52.44 39.4908 4
773 1 47.88 43.4398 4
774 1 49.02 45.4144 4
775 1 51.3 45.4144 4
776 1 52.44 43.4398 4
777 1 47.88 47.3889 4
778 1 49.02 49.3634 4
779 1 51.3 49.3634 4
780 1 52.44 47.3889 4
781 1 47.88 51.338 4
782 1 49.02 53.3125 4
783 1 51.3 53.3125 4
784 1 52.44 51.338 4
785 1 47.88 55.2871 4
786 1 49.02 57.2616 4
787 1 51.3 57.2616 4
788 1 52.44 55.2871 4
789 1 47.88 59.2361 4
790 1 49.02 61.2107 4
791 1 51.3 61.2107 4
792 1 52.44 59.2361 4
793 1 47.88 63.1852 4
794 1 49.02 65.1598 4
795 1 51.3 65.1598 4
796 1 52.44 63.1852 4
797 1 47.88 67.1343 4
798 1 49.02 69.1088 4
799 1 51.3 69.1088 4
800 1 52.44 67.1343 4
801 1 47.88 71.0834 4
802 1 49.02 73.0579 4
803 1 51.3 73.0579 4
804 1 52.44 71.0834 4
805 1 47.88 75.0324 4
806 1 49.02 77.007 4
807 1 51.3 77.007 4
808 1 52.44 75.0324 4
809 1 47.88 78.9815 4
810 1 49.02 80.9561 4
811 1 51.3 80.9561 4
812 1 52.44 78.9815 4
813 1 47.88 82.9306 4
814 1 49.02 84.9051 4
815 1 51.3 84.9051 4
816 1 52.44 82.9306 4
817 1 47.88 86.8797 4
818 1 49.02 88.8542 4
819 1 51.3 88.8542 4
820 1 52.44 86.8797 4
821 1 47.88 90.8287 4
822 1 49.02 92.8033 4
823 1 51.3 92.8033 4
824 1 52.44 90.8287 4
825 1 47.88 94.7778 4
826 1 49.02 96.7524 4
827 1 51.3 96.7524 4
828 1 52.44 94.7778 4
829 1 47.88 98.7269 4
830 1 49.02 100.701 4
831 1 51.3 100.701 4
832 1 52.44 98.7269 4
833 1 54.72 0 4
834 1 55.86 1.97454 4
835 1 58.14 1.97454 4
836 1 59.28 0 4
837 1 54.72 3.94908 4
838 1 55.86 5.92361 4
839 1 58.14 5.92361 4
840 1 59.28 3.94908 4
841 1 54.72 7.89815 4
842 1 55.86 9.87269 4
843 1 58.14 9.87269 4
844 1 59.28 7.89815 4
845 1 54.72 11.8472 4
846 1 55.86 13.8218 4
847 1 58.14 13.8218 4
848 1 59.28 11.8472 4
849 1 54.72 15.7963 4
850 1 55.86 17.7708 4
851 1 58.14 17.7708 4
852 1 59.28 15.7963 4
853 1 54.72 19.7454 4
854 1 55.86 21.7199 4
855 1 58.14 21.7199 4
856 1 59.28 19.7454 4
857 1 54.72 23.6945 4
858 1 55.86 25.669 4
859 1 58.14 25.669 4
860 1 59.28 23.6945 4
861 1 54.72 27.6435 4
862 1 55.86 29.6181 4
863 1 58.14 29.6181 4
864 1 59.28 27.6435 4
865 1 54.72 31.5926 4
866 1 55.86 33.5671 4
867 1 58.14 33.5671 4
868 1 59.28 31.5926 4
869 1 54.72 35.5417 4
870 1 55.86 37.5162 4
871 1 58.14 37.5162 4
872 1 59.28 35.5417 4
873 1 54.72 39.4908 4
874 1 55.86 41.4653 4
875 1 58.14 41.4653 4
876 1 59.28 39.4908 4
877 1 54.72 43.4398 4
878 1 55.86 45.4144 4
879 1 58.14 45.4144 4
880 1 59.28 43.4398 4
881 1 54.72 47.3889 4
882 1 55.86 49.3634 4
883 1 58.14 49.3634 4
884 1 59.28 47.3889 4
885 1 54.72 51.338 4
886 1 55.86 53.3125 4
887 1 58.14 53.3125 4
888 1 59.28 51.338 4
889 1 54.72 55.2871 4
890 1 55.86 57.2616 4
891 1 58.14 57.2616 4
892 1 59.28 55.2871 4
893 1 54.72 59.2361 4
894 1 55.86 61.2107 4
895 1 58.14 61.2107 4
896 1 59.28 59.2361 4
897 1 54.72 63.1852 4
898 1 55.86 65.1598 4
899 1 58.14 65.1598 4
900 1 59.28 63.1852 4
901 1 54.72 67.1343 4
902 1 55.86 69.1088 4
903 1 58.14 69.1088 4
904 1 59.28 67.1343 4
905 1 54.72 71.0834 4
906 1 55.86 73.0579 4
907 1 58.14 73.0579 4
908 1 59.28 71.0834 4
909 1 54.72 75.0324 4
910 1 55.86 77.007 4
911 1 58.14 77.007 4
912 1 59.28 75.0324 4
913 1 54.72 78.9815 4
914 1 55.86 80.9561 4
915 1 58.14 80.9561 4
916 1 59.28 78.9815 4
917 1 54.72 82.9306 4
918 1 55.86 84.9051 4
919 1 58.14 84.9051 4
920 1 59.28 82.9306 4
921 1 54.72 86.8797 4
922 1 55.86 88.8542 4
923 1 58.14 88.8542 4
924 1 59.28 86.8797 4
925 1 54.72 90.8287 4
926 1 55.86 92.8033 4
927 1 58.14 92.8033 4
928 1 59.28 90.8287 4
929 1 54.72 94.7778 4
930 1 55.86 96.7524 4
931 1 58.14 96.7524 4
932 1 59.28 94.7778 4
933 1 54.72 98.7269 4
934 1 55.86 100.701 4
935 1 58.14 100.701 4
936 1 59.28 98.7269 4
937 1 61.56 0 4
938 1 62.7 1.97454 4
939 1 64.98 1.97454 4
940 1 66.12 0 4
941 1 61.56 3.94908 4
942 1 62.7 5.92361 4
943 1 64.98 5.92361 4
944 1 66.12 3.94908 4
945 1 61.56 7.89815 4
946 1 62.7 9.87269 4
947 1 64.98 9.87269 4
948 1 66.12 7.89815 4
949 1 61.56 11.8472 4
950 1 62.7 13.8218 4
951 1 64.98 13.8218 4
952 1 66.12 11.8472 4
953 1 61.56 15.7963 4
954 1 62.7 17.7708 4
955 1 64.98 17.7708 4
956 1 66.12 15.7963 4
957 1 61.56 19.7454 4
958 1 62.7 21.7199 4
959 1 64.98 21.7199 4
960 1 66.12 19.7454 4
961 1 61.56 23.6945 4
962 1 62.7 25.669 4
963 1 64.98 25.669 4
964 1 66.12 23.6945 4
965 1 61.56 27.6435 4
966 1 62.7 29.6181 4
967 1 64.98 29.6181 4
968 1 66.12 27.6435 4
969 1 61.56 31.5926 4
970 1 62.7 33.5671 4
971 1 64.98 33.5671 4
972 1 66.12 31.5926 4
973 1 61.56 35.5417 4
974 1 62.7 37.5162 4
975 1 64.98 37.5162 4
976 1 66.12 35.5417 4
977 1 61.56 39.4908 4
978 1 62.7 41.4653 4
979 1 64.98 41.4653 4
980 1 66.12 39.4908 4
981 1 61.56 43.4398 4
982 1 62.7 45.4144 4
983 1 64.98 45.4144 4
984 1 66.12 43.4398 4
985 1 61.56 47.3889 4
986 1 62.7 49.3634 4
987 1 64.98 49.3634 4
988 1 66.12 47.3889 4
989 1 61.56 51.338 4
990 1 62.7 53.3125 4
991 1 64.98 53.3125 4
992 1 66.12 51.338 4
993 1 61.56 55.2871 4
994 1 62.7 57.2616 4
995 1 64.98 57.2616 4
996 1 66.12 55.2871 4
997 1 61.56 59.2361 4
998 1 62.7 61.2107 4
999 1 64.98 61.2107 4
1000 1 66.12 59.2361 4
1001 1 61.56 63.1852 4
1002 1 62.7 65.1598 4
1003 1 64.98 65.1598 4
1004 1 66.12 63.1852 4
1005 1 61.56 67.1343 4
1006 1 62.7 69.1088 4
1007 1 64.98 69.1088 4
1008 1 66.12 67.1343 4
1009 1 61.56 71.0834 4
1010 1 62.7 73.0579 4
1011 1 64.98 73.0579 4
1012 1 66.12 71.0834 4
1013 1 61.56 75.0324 4
1014 1 62.7 77.007 4
1015 1 64.98 77.007 4
1016 1 66.12 75.0324 4
1017 1 61.56 78.9815 4
1018 1 62.7 80.9561 4
1019 1 64.98 80.9561 4
1020 1 66.12 78.9815 4
1021 1 61.56 82.9306 4
1022 1 62.7 84.9051 4
1023 1 64.98 84.9051 4
1024 1 66.12 82.9306 4
1025 1 61.56 86.8797 4
1026 1 62.7 88.8542 4
1027 1 64.98 88.8542 4
1028 1 66.12 86.8797 4
1029 1 61.56 90.8287 4
1030 1 62.7 92.8033 4
1031 1 64.98 92.8033 4
1032 1 66.12 90.8287 4
1033 1 61.56 94.7778 4
1034 1 62.7 96.7524 4
1035 1 64.98 96.7524 4
1036 1 66.12 94.7778 4
1037 1 61.56 98.7269 4
1038 1 62.7 100.701 4
1039 1 64.98 100.701 4
1040 1 66.12 98.7269 4
1041 1 68.4 0 4
1042 1 69.54 1.97454 4
1043 1 71.82 1.97454 4
1044 1 72.96 0 4
1045 1 68.4 3.94908 4
1046 1 69.54 5.92361 4
1047 1 71.82 5.92361 4
1048 1 72.96 3.94908 4
1049 1 68.4 7.89815 4
1050 1 69.54 9.87269 4
1051 1 71.82 9.87269 4
1052 1 72.96 7.89815 4
1053 1 68.4 11.8472 4
1054 1 69.54 13.8218 4
1055 1 71.82 13.8218 4
1056 1 72.96 11.8472 4
1057 1 68.4 15.7963 4
1058 1 69.54 17.7708 4
1059 1 71.82 17.7708 4
1060 1 72.96 15.7963 4
1061 1 68.4 19.7454 4
1062 1 69.54 21.7199 4
1063 1 71.82 21.7199 4
1064 1 72.96 19.7454 4
1065 1 68.4 23.6945 4
1066 1 69.54 25.669 4
1067 1 71.82 25.669 4
1068 1 72.96 23.6945 4
1069 1 68.4 27.6435 4
1070 1 69.54 29.6181 4
1071 1 71.82 29.6181 4
1072 1 72.96 27.6435 4
1073 1 68.4 31.5926 4
1074 1 69.54 33.5671 4
1075 1 71.82 33.5671 4
1076 1 72.96 31.5926 4
1077 1 68.4 35.5417 4
1078 1 69.54 37.5162 4
1079 1 71.82 37.5162 4
1080 1 72.96 35.5417 4
1081 1 68.4 39.4908 4
1082 1 69.54 41.4653 4
1083 1 71.82 41.4653 4
1084 1 72.96 39.4908 4
1085 1 68.4 43.4398 4
1086 1 69.54 45.4144 4
1087 1 71.82 45.4144 4
1088 1 72.96 43.4398 4
1089 1 68.4 47.3889 4
1090 1 69.54 49.3634 4
1091 1 71.82 49.3634 4
1092 1 72.96 47.3889 4
1093 1 68.4 51.338 4
1094 1 69.54 53.3125 4
1095 1 71.82 53.3125 4
1096 1 72.96 51.338 4
1097 1 68.4 55.2871 4
1098 1 69.54 57.2616 4
1099 1 71.82 57.2616 4
1100 1 72.96 55.2871 4
1101 1 68.4 59.2361 4
1102 1 69.54 61.2107 4
1103 1 71.82 61.2107 4
1104 1 72.96 59.2361 4
1105 1 68.4 63.1852 4
1106 1 69.54 65.1598 4
1107 1 71.82 65.1598 4
1108 1 72.96 63.1852 4
1109 1 68.4 67.1343 4
1110 1 69.54 69.1088 4
1111 1 71.82 69.1088 4
1112 1 72.96 67.1343 4
1113 1 68.4 71.0834 4
1114 1 69.54 73.0579 4
1115 1 71.82 73.0579 4
1116 1 72.96 71.0834 4
1117 1 68.4 75.0324 4
1118 1 69.54 77.007 4
1119 1 71.82 77.007 4
1120 1 72.96 75.0324 4
1121 1 68.4 78.9815 4
1122 1 69.54 80.9561 4
1123 1 71.82 80.9561 4
1124 1 72.96 78.9815 4
1125 1 68.4 82.9306 4
1126 1 69.54 84.9051 4
1127 1 71.82 84.9051 4
1128 1 72.96 82.9306 4
1129 1 68.4 86.8797 4
1130 1 69.54 88.8542 4
1131 1 71.82 88.8542 4
1132 1 72.96 86.8797 4
1133 1 68.4 90.8287 4
1134 1 69.54 92.8033 4
1135 1 71.82 92.8033 4
1136 1 72.96 90.8287 4
1137 1 68.4 94.7778 4
1138 1 69.54 96.7524 4
1139 1 71.82 96.7524 4
1140 1 72.96 94.7778 4
1141 1 68.4 98.7269 4
1142 1 69.54 100.701 4
1143 1 71.82 100.701 4
1144 1 72.96 98.7269 4
1145 1 75.24 0 4
1146 1 76.38 1.97454 4
1147 1 78.66 1.97454 4
1148 1 79.8 0 4
1149 1 75.24 3.94908 4
1150 1 76.38 5.92361 4
1151 1 78.66 5.92361 4
1152 1 79.8 3.94908 4
1153 1 75.24 7.89815 4
1154 1 76.38 9.87269 4
1155 1 78.66 9.87269 4
1156 1 79.8 7.89815 4
1157 1 75.24 11.8472 4
1158 1 76.38 13.8218 4
1159 1 78.66 13.8218 4
1160 1 79.8 11.8472 4
1161 1 75.24 15.7963 4
1162 1 76.38 17.7708 4
1163 1 78.66 17.7708 4
1164 1 79.8 15.7963 4
1165 1 75.24 19.7454 4
1166 1 76.38 21.7199 4
1167 1 78.66 21.7199 4
1168 1 79.8 19.7454 4
1169 1 75.24 23.6945 4
1170 1 76.38 25.669 4
1171 1 78.66 25.669 4
1172 1 79.8 23.6945 4
1173 1 75.24 27.6435 4
1174 1 76.38 29.6181 4
1175 1 78.66 29.6181 4
1176 1 79.8 27.6435 4
1177 1 75.24 31.5926 4
1178 1 76.38 33.5671 4
1179 1 78.66 33.5671 4
1180 1 79.8 31.5926 4
1181 1 75.24 35.5417 4
1182 1 76.38 37.5162 4
1183 1 78.66 37.5162 4
1184 1 79.8 35.5417 4
1185 1 75.24 39.4908 4
1186 1 76.38 41.4653 4
1187 1 78.66 41.4653 4
1188 1 79.8 39.4908 4
1189 1 75.24 43.4398 4
1190 1 76.38 45.4144 4
1191 1 78.66 45.4144 4
1192 1 79.8 43.4398 4
1193 1 75.24 47.3889 4
1194 1 76.38 49.3634 4
1195 1 78.66 49.3634 4
1196 1 79.8 47.3889 4
1197 1 75.24 51.338 4
1198 1 76.38 53.3125 4
1199 1 78.66 53.3125 4
1200 1 79.8 51.338 4
1201 1 75.24 55.2871 4
1202 1 76.38 57.2616 4
1203 1 78.66 57.2616 4
1204 1 79.8 55.2871 4
1205 1 75.24 59.2361 4
1206 1 76.38 61.2107 4
1207 1 78.66 61.2107 4
1208 1 79.8 59.2361 4
1209 1 75.24 63.1852 4
1210 1 76.38 65.1598 4
1211 1 78.66 65.1598 4
1212 1 79.8 63.1852 4
1213 1 75.24 67.1343 4
1214 1 76.38 69.1088 4
1215 1 78.66 69.1088 4
1216 1 79.8 67.1343 4
1217 1 75.24 71.0834 4
1218 1 76.38 73.0579 4
1219 1 78.66 73.0579 4
1220 1 79.8 71.0834 4
1221 1 75.24 75.0324 4
1222 1 76.38 77.007 4
1223 1 78.66 77.007 4
1224 1 79.8 75.0324 4
1225 1 75.24 78.9815 4
1226 1 76.38 80.9561 4
1227 1 78.66 80.9561 4
1228 1 79.8 78.9815 4
1229 1 75.24 82.9306 4
1230 1 76.38 84.9051 4
1231 1 78.66 84.9051 4
1232 1 79.8 82.9306 4
1233 1 75.24 86.8797 4
1234 1 76.38 88.8542 4
1235 1 78.66 88.8542 4
1236 1 79.8 86.8797 4
1237 1 75.24 90.8287 4
1238 1 76.38 92.8033 4
1239 1 78.66 92.8033 4
1240 1 79.8 90.8287 4
1241 1 75.24 94.7778 4
1242 1 76.38 96.7524 4
1243 1 78.66 96.7524 4
1244 1 79.8 94.7778 4
1245 1 75.24 98.7269 4
1246 1 76.38 100.701 4
1247 1 78.66 100.701 4
1248 1 79.8 98.7269 4
1249 1 82.08 0 4
1250 1 83.22 1.97454 4
1251 1 85.5 1.97454 4
1252 1 86.64 0 4
1253 1 82.08 3.94908 4
1254 1 83.22 5.92361 4
1255 1 85.5 5.92361 4
1256 1 86.64 3.94908 4
1257 1 82.08 7.89815 4
1258 1 83.22 9.87269 4
1259 1 85.5 9.87269 4
1260 1 86.64 7.89815 4
1261 1 82.08 11.8472 4
1262 1 83.22 13.8218 4
1263 1 85.5 13.8218 4
1264 1 86.64 11.8472 4
1265 1 82.08 15.7963 4
1266 1 83.22 17.7708 4
1267 1 85.5 17.7708 4
1268 1 86.64 15.7963 4
1269 1 82.08 19.7454 4
1270 1 83.22 21.7199 4
1271 1 85.5 21.7199 4
1272 1 86.64 19.7454 4
1273 1 82.08 23.6945 4
1274 1 83.22 25.669 4
1275 1 85.5 25.669 4
1276 1 86.64 23.6945 4
1277 1 82.08 27.6435 4
1278 1 83.22 29.6181 4
1279 1 85.5 29.6181 4
1280 1 86.64 27.6435 4
1281 1 82.08 31.5926 4
1282 1 83.22 33.5671 4
1283 1 85.5 33.5671 4
1284 1 86.64 31.5926 4
1285 1 82.08 35.5417 4
1286 1 83.22 37.5162 4
1287 1 85.5 37.5162 4
1288 1 86.64 35.5417 4
1289 1 82.08 39.4908 4
1290 1 83.22 41.4653 4
1291 1 85.5 41.4653 4
1292 1 86.64 39.4908 4
1293 1 82.08 43.4398 4
1294 1 83.22 45.4144 4
1295 1 85.5 45.4144 4
1296 1 86.64 43.4398 4
1297 1 82.08 47.3889 4
1298 1 83.22 49.3634 4
1299 1 85.5 49.3634 4
1300 1 86.64 47.3889 4
1301 1 82.08 51.338 4
1302 1 83.22 53.3125 4
1303 1 85.5 53.3125 4
1304 1 86.64 51.338 4
1305 1 82.08 55.2871 4
1306 1 83.22 57.2616 4
1307 1 85.5 57.2616 4
1308 1 86.64 55.2871 4
1309 1 82.08 59.2361 4
1310 1 83.22 61.2107 4
1311 1 85.5 61.2107 4
1312 1 86.64 59.2361 4
1313 1 82.08 63.1852 4
1314 1 83.22 65.1598 4
1315 1 85.5 65.1598 4
1316 1 86.64 63.1852 4
1317 1 82.08 67.1343 4
1318 1 83.22 69.1088 4
1319 1 85.5 69.1088 4
1320 1 86.64 67.1343 4
1321 1 82.08 71.0834 4
1322 1 83.22 73.0579 4
1323 1 85.5 73.0579 4
1324 1 86.64 71.0834 4
1325 1 82.08 75.0324 4
1326 1 83.22 77.007 4
1327 1 85.5 77.007 4
1328 1 86.64 75.0324 4
1329 1 82.08 78.9815 4
1330 1 83.22 80.9561 4
1331 1 85.5 80.9561 4
1332 1 86.64 78.9815 4
1333 1 82.08 82.9306 4
1334 1 83.22 84.9051 4
1335 1 85.5 84.9051 4
1336 1 86.64 82.9306 4
1337 1 82.08 86.8797 4
1338 1 83.22 88.8542 4
1339 1 85.5 88.8542 4
1340 1 86.64 86.8797 4
1341 1 82.08 90.8287 4
1342 1 83.22 92.8033 4
1343 1 85.5 92.8033 4
1344 1 86.64 90.8287 4
1345 1 82.08 94.7778 4
1346 1 83.22 96.7524 4
1347 1 85.5 96.7524 4
1348 1 86.64 94.7778 4
1349 1 82.08 98.7269 4
1350 1 83.22 100.701 4
1351 1 85.5 100.701 4
1352 1 86.64 98.7269 4
1353 1 88.92 0 4
1354 1 90.06 1.97454 4
1355 1 92.34 1.97454 4
1356 1 93.48 0 4
1357 1 88.92 3.94908 4
1358 1 90.06 5.92361 4
1359 1 92.34 5.92361 4
1360 1 93.48 3.94908 4
1361 1 88.92 7.89815 4
1362 1 90.06 9.87269 4
1363 1 92.34 9.87269 4
1364 1 93.48 7.89815 4
1365 1 88.92 11.8472 4
1366 1 90.06 13.8218 4
1367 1 92.34 13.8218 4
1368 1 93.48 11.8472 4
1369 1 88.92 15.7963 4
1370 1 90.06 17.7708 4
1371 1 92.34 17.7708 4
1372 1 93.48 15.7963 4
1373 1 88.92 19.7454 4
1374 1 90.06 21.7199 4
1375 1 92.34 21.7199 4
1376 1 93.48 19.7454 4