#Silicene 1.520000e+01nmx1.520000e+01nm, a=2.28(2.32594), lx=23, ly=39

7176 atoms

2 atom types

0 157.32 xlo xhi
0 154.014 ylo yhi
-96 96 zlo zhi

Masses

1 28.0855
2 28.0855

Atoms

1 1 0 0 4
2 1 1.14 1.97454 4.46
3 1 3.42 1.97454 4
4 1 4.56 0 4.46
5 1 0 3.94908 4
6 1 1.14 5.92361 4.46
7 1 3.42 5.92361 4
8 1 4.56 3.94908 4.46
9 1 0 7.89815 4
10 1 1.14 9.87269 4.46
11 1 3.42 9.87269 4
12 1 4.56 7.89815 4.46
13 1 0 11.8472 4
14 1 1.14 13.8218 4.46
15 1 3.42 13.8218 4
16 1 4.56 11.8472 4.46
17 1 0 15.7963 4
18 1 1.14 17.7708 4.46
19 1 3.42 17.7708 4
20 1 4.56 15.7963 4.46
21 1 0 19.7454 4
22 1 1.14 21.7199 4.46
23 1 3.42 21.7199 4
24 1 4.56 19.7454 4.46
25 1 0 23.6945 4
26 1 1.14 25.669 4.46
27 1 3.42 25.669 4
28 1 4.56 23.6945 4.46
29 1 0 27.6435 4
30 1 1.14 29.6181 4.46
31 1 3.42 29.6181 4
32 1 4.56 27.6435 4.46
33 1 0 31.5926 4
34 1 1.14 33.5671 4.46
35 1 3.42 33.5671 4
36 1 4.56 31.5926 4.46
37 1 0 35.5417 4
38 1 1.14 37.5162 4.46
39 1 3.42 37.5162 4
40 1 4.56 35.5417 4.46
41 1 0 39.4908 4
42 1 1.14 41.4653 4.46
43 1 3.42 41.4653 4
44 1 4.56 39.4908 4.46
45 1 0 43.4398 4
46 1 1.14 45.4144 4.46
47 1 3.42 45.4144 4
48 1 4.56 43.4398 4.46
49 1 0 47.3889 4
50 1 1.14 49.3634 4.46
51 1 3.42 49.3634 4
52 1 4.56 47.3889 4.46
53 1 0 51.338 4
54 1 1.14 53.3125 4.46
55 1 3.42 53.3125 4
56 1 4.56 51.338 4.46
57 1 0 55.2871 4
58 1 1.14 57.2616 4.46
59 1 3.42 57.2616 4
60 1 4.56 55.2871 4.46
61 1 0 59.2361 4
62 1 1.14 61.2107 4.46
63 1 3.42 61.2107 4
64 1 4.56 59.2361 4.46
65 1 0 63.1852 4
66 1 1.14 65.1598 4.46
67 1 3.42 65.1598 4
68 1 4.56 63.1852 4.46
69 1 0 67.1343 4
70 1 1.14 69.1088 4.46
71 1 3.42 69.1088 4
72 1 4.56 67.1343 4.46
73 1 0 71.0834 4
74 1 1.14 73.0579 4.46
75 1 3.42 73.0579 4
76 1 4.56 71.0834 4.46
77 1 0 75.0324 4
78 1 1.14 77.007 4.46
79 1 3.42 77.007 4
80 1 4.56 75.0324 4.46
81 1 0 78.9815 4
82 1 1.14 80.9561 4.46
83 1 3.42 80.9561 4
84 1 4.56 78.9815 4.46
85 1 0 82.9306 4
86 1 1.14 84.9051 4.46
87 1 3.42 84.9051 4
88 1 4.56 82.9306 4.46
89 1 0 86.8797 4
90 1 1.14 88.8542 4.46
91 1 3.42 88.8542 4
92 1 4.56 86.8797 4.46
93 1 0 90.8287 4
94 1 1.14 92.8033 4.46
95 1 3.42 92.8033 4
96 1 4.56 90.8287 4.46
97 1 0 94.7778 4
98 1 1.14 96.7524 4.46
99 1 3.42 96.7524 4
100 1 4.56 94.7778 4.46
101 1 0 98.7269 4
102 1 1.14 100.701 4.46
103 1 3.42 100.701 4
104 1 4.56 98.7269 4.46
105 1 0 102.676 4
106 1 1.14 104.651 4.46
107 1 3.42 104.651 4
108 1 4.56 102.676 4.46
109 1 0 106.625 4
110 1 1.14 108.6 4.46
111 1 3.42 108.6 4
112 1 4.56 106.625 4.46
113 1 0 110.574 4
114 1 1.14 112.549 4.46
115 1 3.42 112.549 4
116 1 4.56 110.574 4.46
117 1 0 114.523 4
118 1 1.14 116.498 4.46
119 1 3.42 116.498 4
120 1 4.56 114.523 4.46
121 1 0 118.472 4
122 1 1.14 120.447 4.46
123 1 3.42 120.447 4
124 1 4.56 118.472 4.46
125 1 0 122.421 4
126 1 1.14 124.396 4.46
127 1 3.42 124.396 4
128 1 4.56 122.421 4.46
129 1 0 126.37 4
130 1 1.14 128.345 4.46
131 1 3.42 128.345 4
132 1 4.56 126.37 4.46
133 1 0 130.32 4
134 1 1.14 132.294 4.46
135 1 3.42 132.294 4
136 1 4.56 130.32 4.46
137 1 0 134.269 4
138 1 1.14 136.243 4.46
139 1 3.42 136.243 4
140 1 4.56 134.269 4.46
141 1 0 138.218 4
142 1 1.14 140.192 4.46
143 1 3.42 140.192 4
144 1 4.56 138.218 4.46
145 1 0 142.167 4
146 1 1.14 144.141 4.46
147 1 3.42 144.141 4
148 1 4.56 142.167 4.46
149 1 0 146.116 4
150 1 1.14 148.09 4.46
151 1 3.42 148.09 4
152 1 4.56 146.116 4.46
153 1 0 150.065 4
154 1 1.14 152.039 4.46
155 1 3.42 152.039 4
156 1 4.56 150.065 4.46
157 1 6.84 0 4
158 1 7.98 1.97454 4.46
159 1 10.26 1.97454 4
160 1 11.4 0 4.46
161 1 6.84 3.94908 4
162 1 7.98 5.92361 4.46
163 1 10.26 5.92361 4
164 1 11.4 3.94908 4.46
165 1 6.84 7.89815 4
166 1 7.98 9.87269 4.46
167 1 10.26 9.87269 4
168 1 11.4 7.89815 4.46
169 1 6.84 11.8472 4
170 1 7.98 13.8218 4.46
171 1 10.26 13.8218 4
172 1 11.4 11.8472 4.46
173 1 6.84 15.7963 4
174 1 7.98 17.7708 4.46
175 1 10.26 17.7708 4
176 1 11.4 15.7963 4.46
177 1 6.84 19.7454 4
178 1 7.98 21.7199 4.46
179 1 10.26 21.7199 4
180 1 11.4 19.7454 4.46
181 1 6.84 23.6945 4
182 1 7.98 25.669 4.46
183 1 10.26 25.669 4
184 1 11.4 23.6945 4.46
185 1 6.84 27.6435 4
186 1 7.98 29.6181 4.46
187 1 10.26 29.6181 4
188 1 11.4 27.6435 4.46
189 1 6.84 31.5926 4
190 1 7.98 33.5671 4.46
191 1 10.26 33.5671 4
192 1 11.4 31.5926 4.46
193 1 6.84 35.5417 4
194 1 7.98 37.5162 4.46
195 1 10.26 37.5162 4
196 1 11.4 35.5417 4.46
197 1 6.84 39.4908 4
198 1 7.98 41.4653 4.46
199 1 10.26 41.4653 4
200 1 11.4 39.4908 4.46
201 1 6.84 43.4398 4
202 1 7.98 45.4144 4.46
203 1 10.26 45.4144 4
204 1 11.4 43.4398 4.46
205 1 6.84 47.3889 4
206 1 7.98 49.3634 4.46
207 1 10.26 49.3634 4
208 1 11.4 47.3889 4.46
209 1 6.84 51.338 4
210 1 7.98 53.3125 4.46
211 1 10.26 53.3125 4
212 1 11.4 51.338 4.46
213 1 6.84 55.2871 4
214 1 7.98 57.2616 4.46
215 1 10.26 57.2616 4
216 1 11.4 55.2871 4.46
217 1 6.84 59.2361 4
218 1 7.98 61.2107 4.46
219 1 10.26 61.2107 4
220 1 11.4 59.2361 4.46
221 1 6.84 63.1852 4
222 1 7.98 65.1598 4.46
223 1 10.26 65.1598 4
224 1 11.4 63.1852 4.46
225 1 6.84 67.1343 4
226 1 7.98 69.1088 4.46
227 1 10.26 69.1088 4
228 1 11.4 67.1343 4.46
229 1 6.84 71.0834 4
230 1 7.98 73.0579 4.46
231 1 10.26 73.0579 4
232 1 11.4 71.0834 4.46
233 1 6.84 75.0324 4
234 1 7.98 77.007 4.46
235 1 10.26 77.007 4
236 1 11.4 75.0324 4.46
237 1 6.84 78.9815 4
238 1 7.98 80.9561 4.46
239 1 10.26 80.9561 4
240 1 11.4 78.9815 4.46
241 1 6.84 82.9306 4
242 1 7.98 84.9051 4.46
243 1 10.26 84.9051 4
244 1 11.4 82.9306 4.46
245 1 6.84 86.8797 4
246 1 7.98 88.8542 4.46
247 1 10.26 88.8542 4
248 1 11.4 86.8797 4.46
249 1 6.84 90.8287 4
250 1 7.98 92.8033 4.46
251 1 10.26 92.8033 4
252 1 11.4 90.8287 4.46
253 1 6.84 94.7778 4
254 1 7.98 96.7524 4.46
255 1 10.26 96.7524 4
256 1 11.4 94.7778 4.46
257 1 6.84 98.7269 4
258 1 7.98 100.701 4.46
259 1 10.26 100.701 4
260 1 11.4 98.7269 4.46
261 1 6.84 102.676 4
262 1 7.98 104.651 4.46
263 1 10.26 104.651 4
264 1 11.4 102.676 4.46
265 1 6.84 106.625 4
266 1 7.98 108.6 4.46
267 1 10.26 108.6 4
268 1 11.4 106.625 4.46
269 1 6.84 110.574 4
270 1 7.98 112.549 4.46
271 1 10.26 112.549 4
272 1 11.4 110.574 4.46
273 1 6.84 114.523 4
274 1 7.98 116.498 4.46
275 1 10.26 116.498 4
276 1 11.4 114.523 4.46
277 1 6.84 118.472 4
278 1 7.98 120.447 4.46
279 1 10.26 120.447 4
280 1 11.4 118.472 4.46
281 1 6.84 122.421 4
282 1 7.98 124.396 4.46
283 1 10.26 124.396 4
284 1 11.4 122.421 4.46
285 1 6.84 126.37 4
286 1 7.98 128.345 4.46
287 1 10.26 128.345 4
288 1 11.4 126.37 4.46
289 1 6.84 130.32 4
290 1 7.98 132.294 4.46
291 1 10.26 132.294 4
292 1 11.4 130.32 4.46
293 1 6.84 134.269 4
294 1 7.98 136.243 4.46
295 1 10.26 136.243 4
296 1 11.4 134.269 4.46
297 1 6.84 138.218 4
298 1 7.98 140.192 4.46
299 1 10.26 140.192 4
300 1 11.4 138.218 4.46
301 1 6.84 142.167 4
302 1 7.98 144.141 4.46
303 1 10.26 144.141 4
304 1 11.4 142.167 4.46
305 1 6.84 146.116 4
306 1 7.98 148.09 4.46
307 1 10.26 148.09 4
308 1 11.4 146.116 4.46
309 1 6.84 150.065 4
310 1 7.98 152.039 4.46
311 1 10.26 152.039 4
312 1 11.4 150.065 4.46
313 1 13.68 0 4
314 1 14.82 1.97454 4.46
315 1 17.1 1.97454 4
316 1 18.24 0 4.46
317 1 13.68 3.94908 4
318 1 14.82 5.92361 4.46
319 1 17.1 5.92361 4
320 1 18.24 3.94908 4.46
321 1 13.68 7.89815 4
322 1 14.82 9.87269 4.46
323 1 17.1 9.87269 4
324 1 18.24 7.89815 4.46
325 1 13.68 11.8472 4
326 1 14.82 13.8218 4.46
327 1 17.1 13.8218 4
328 1 18.24 11.8472 4.46
329 1 13.68 15.7963 4
330 1 14.82 17.7708 4.46
331 1 17.1 17.7708 4
332 1 18.24 15.7963 4.46
333 1 13.68 19.7454 4
334 1 14.82 21.7199 4.46
335 1 17.1 21.7199 4
336 1 18.24 19.7454 4.46
337 1 13.68 23.6945 4
338 1 14.82 25.669 4.46
339 1 17.1 25.669 4
340 1 18.24 23.6945 4.46
341 1 13.68 27.6435 4
342 1 14.82 29.6181 4.46
343 1 17.1 29.6181 4
344 1 18.24 27.6435 4.46
345 1 13.68 31.5926 4
346 1 14.82 33.5671 4.46
347 1 17.1 33.5671 4
348 1 18.24 31.5926 4.46
349 1 13.68 35.5417 4
350 1 14.82 37.5162 4.46
351 1 17.1 37.5162 4
352 1 18.24 35.5417 4.46
353 1 13.68 39.4908 4
354 1 14.82 41.4653 4.46
355 1 17.1 41.4653 4
356 1 18.24 39.4908 4.46
357 1 13.68 43.4398 4
358 1 14.82 45.4144 4.46
359 1 17.1 45.4144 4
360 1 18.24 43.4398 4.46
361 1 13.68 47.3889 4
362 1 14.82 49.3634 4.46
363 1 17.1 49.3634 4
364 1 18.24 47.3889 4.46
365 1 13.68 51.338 4
366 1 14.82 53.3125 4.46
367 1 17.1 53.3125 4
368 1 18.24 51.338 4.46
369 1 13.68 55.2871 4
370 1 14.82 57.2616 4.46
371 1 17.1 57.2616 4
372 1 18.24 55.2871 4.46
373 1 13.68 59.2361 4
374 1 14.82 61.2107 4.46
375 1 17.1 61.2107 4
376 1 18.24 59.2361 4.46
377 1 13.68 63.1852 4
378 1 14.82 65.1598 4.46
379 1 17.1 65.1598 4
380 1 18.24 63.1852 4.46
381 1 13.68 67.1343 4
382 1 14.82 69.1088 4.46
383 1 17.1 69.1088 4
384 1 18.24 67.1343 4.46
385 1 13.68 71.0834 4
386 1 14.82 73.0579 4.46
387 1 17.1 73.0579 4
388 1 18.24 71.0834 4.46
389 1 13.68 75.0324 4
390 1 14.82 77.007 4.46
391 1 17.1 77.007 4
392 1 18.24 75.0324 4.46
393 1 13.68 78.9815 4
394 1 14.82 80.9561 4.46
395 1 17.1 80.9561 4
396 1 18.24 78.9815 4.46
397 1 13.68 82.9306 4
398 1 14.82 84.9051 4.46
399 1 17.1 84.9051 4
400 1 18.24 82.9306 4.46
401 1 13.68 86.8797 4
402 1 14.82 88.8542 4.46
403 1 17.1 88.8542 4
404 1 18.24 86.8797 4.46
405 1 13.68 90.8287 4
406 1 14.82 92.8033 4.46
407 1 17.1 92.8033 4
408 1 18.24 90.8287 4.46
409 1 13.68 94.7778 4
410 1 14.82 96.7524 4.46
411 1 17.1 96.7524 4
412 1 18.24 94.7778 4.46
413 1 13.68 98.7269 4
414 1 14.82 100.701 4.46
415 1 17.1 100.701 4
416 1 18.24 98.7269 4.46
417 1 13.68 102.676 4
418 1 14.82 104.651 4.46
419 1 17.1 104.651 4
420 1 18.24 102.676 4.46
421 1 13.68 106.625 4
422 1 14.82 108.6 4.46
423 1 17.1 108.6 4
424 1 18.24 106.625 4.46
425 1 13.68 110.574 4
426 1 14.82 112.549 4.46
427 1 17.1 112.549 4
428 1 18.24 110.574 4.46
429 1 13.68 114.523 4
430 1 14.82 116.498 4.46
431 1 17.1 116.498 4
432 1 18.24 114.523 4.46
433 1 13.68 118.472 4
434 1 14.82 120.447 4.46
435 1 17.1 120.447 4
436 1 18.24 118.472 4.46
437 1 13.68 122.421 4
438 1 14.82 124.396 4.46
439 1 17.1 124.396 4
440 1 18.24 122.421 4.46
441 1 13.68 126.37 4
442 1 14.82 128.345 4.46
443 1 17.1 128.345 4
444 1 18.24 126.37 4.46
445 1 13.68 130.32 4
446 1 14.82 132.294 4.46
447 1 17.1 132.294 4
448 1 18.24 130.32 4.46
449 1 13.68 134.269 4
450 1 14.82 136.243 4.46
451 1 17.1 136.243 4
452 1 18.24 134.269 4.46
453 1 13.68 138.218 4
454 1 14.82 140.192 4.46
455 1 17.1 140.192 4
456 1 18.24 138.218 4.46
457 1 13.68 142.167 4
458 1 14.82 144.141 4.46
459 1 17.1 144.141 4
460 1 18.24 142.167 4.46
461 1 13.68 146.116 4
462 1 14.82 148.09 4.46
463 1 17.1 148.09 4
464 1 18.24 146.116 4.46
465 1 13.68 150.065 4
466 1 14.82 152.039 4.46
467 1 17.1 152.039 4
468 1 18.24 150.065 4.46
469 1 20.52 0 4
470 1 21.66 1.97454 4.46
471 1 23.94 1.97454 4
472 1 25.08 0 4.46
473 1 20.52 3.94908 4
474 1 21.66 5.92361 4.46
475 1 23.94 5.92361 4
476 1 25.08 3.94908 4.46
477 1 20.52 7.89815 4
478 1 21.66 9.87269 4.46
479 1 23.94 9.87269 4
480 1 25.08 7.89815 4.46
481 1 20.52 11.8472 4
482 1 21.66 13.8218 4.46
483 1 23.94 13.8218 4
484 1 25.08 11.8472 4.46
485 1 20.52 15.7963 4
486 1 21.66 17.7708 4.46
487 1 23.94 17.7708 4
488 1 25.08 15.7963 4.46
489 1 20.52 19.7454 4
490 1 21.66 21.7199 4.46
491 1 23.94 21.7199 4
492 1 25.08 19.7454 4.46
493 1 20.52 23.6945 4
494 1 21.66 25.669 4.46
495 1 23.94 25.669 4
496 1 25.08 23.6945 4.46
497 1 20.52 27.6435 4
498 1 21.66 29.6181 4.46
499 1 23.94 29.6181 4
500 1 25.08 27.6435 4.46
501 1 20.52 31.5926 4
502 1 21.66 33.5671 4.46
503 1 23.94 33.5671 4
504 1 25.08 31.5926 4.46
505 1 20.52 35.5417 4
506 1 21.66 37.5162 4.46
507 1 23.94 37.5162 4
508 1 25.08 35.5417 4.46
509 1 20.52 39.4908 4
510 1 21.66 41.4653 4.46
511 1 23.94 41.4653 4
512 1 25.08 39.4908 4.46
513 1 20.52 43.4398 4
514 1 21.66 45.4144 4.46
515 1 23.94 45.4144 4
516 1 25.08 43.4398 4.46
517 1 20.52 47.3889 4
518 1 21.66 49.3634 4.46
519 1 23.94 49.3634 4
520 1 25.08 47.3889 4.46
521 1 20.52 51.338 4
522 1 21.66 53.3125 4.46
523 1 23.94 53.3125 4
524 1 25.08 51.338 4.46
525 1 20.52 55.2871 4
526 1 21.66 57.2616 4.46
527 1 23.94 57.2616 4
528 1 25.08 55.2871 4.46
529 1 20.52 59.2361 4
530 1 21.66 61.2107 4.46
531 1 23.94 61.2107 4
532 1 25.08 59.2361 4.46
533 1 20.52 63.1852 4
534 1 21.66 65.1598 4.46
535 1 23.94 65.1598 4
536 1 25.08 63.1852 4.46
537 1 20.52 67.1343 4
538 1 21.66 69.1088 4.46
539 1 23.94 69.1088 4
540 1 25.08 67.1343 4.46
541 1 20.52 71.0834 4
542 1 21.66 73.0579 4.46
543 1 23.94 73.0579 4
544 1 25.08 71.0834 4.46
545 1 20.52 75.0324 4
546 1 21.66 77.007 4.46
547 1 23.94 77.007 4
548 1 25.08 75.0324 4.46
549 1 20.52 78.9815 4
550 1 21.66 80.9561 4.46
551 1 23.94 80.9561 4
552 1 25.08 78.9815 4.46
553 1 20.52 82.9306 4
554 1 21.66 84.9051 4.46
555 1 23.94 84.9051 4
556 1 25.08 82.9306 4.46
557 1 20.52 86.8797 4
558 1 21.66 88.8542 4.46
559 1 23.94 88.8542 4
560 1 25.08 86.8797 4.46
561 1 20.52 90.8287 4
562 1 21.66 92.8033 4.46
563 1 23.94 92.8033 4
564 1 25.08 90.8287 4.46
565 1 20.52 94.7778 4
566 1 21.66 96.7524 4.46
567 1 23.94 96.7524 4
568 1 25.08 94.7778 4.46
569 1 20.52 98.7269 4
570 1 21.66 100.701 4.46
571 1 23.94 100.701 4
572 1 25.08 98.7269 4.46
573 1 20.52 102.676 4
574 1 21.66 104.651 4.46
575 1 23.94 104.651 4
576 1 25.08 102.676 4.46
577 1 20.52 106.625 4
578 1 21.66 108.6 4.46
579 1 23.94 108.6 4
580 1 25.08 106.625 4.46
581 1 20.52 110.574 4
582 1 21.66 112.549 4.46
583 1 23.94 112.549 4
584 1 25.08 110.574 4.46
585 1 20.52 114.523 4
586 1 21.66 116.498 4.46
587 1 23.94 116.498 4
588 1 25.08 114.523 4.46
589 1 20.52 118.472 4
590 1 21.66 120.447 4.46
591 1 23.94 120.447 4
592 1 25.08 118.472 4.46
593 1 20.52 122.421 4
594 1 21.66 124.396 4.46
595 1 23.94 124.396 4
596 1 25.08 122.421 4.46
597 1 20.52 126.37 4
598 1 21.66 128.345 4.46
599 1 23.94 128.345 4
600 1 25.08 126.37 4.46
601 1 20.52 130.32 4
602 1 21.66 132.294 4.46
603 1 23.94 132.294 4
604 1 25.08 130.32 4.46
605 1 20.52 134.269 4
606 1 21.66 136.243 4.46
607 1 23.94 136.243 4
608 1 25.08 134.269 4.46
609 1 20.52 138.218 4
610 1 21.66 140.192 4.46
611 1 23.94 140.192 4
612 1 25.08 138.218 4.46
613 1 20.52 142.167 4
614 1 21.66 144.141 4.46
615 1 23.94 144.141 4
616 1 25.08 142.167 4.46
617 1 20.52 146.116 4
618 1 21.66 148.09 4.46
619 1 23.94 148.09 4
620 1 25.08 146.116 4.46
621 1 20.52 150.065 4
622 1 21.66 152.039 4.46
623 1 23.94 152.039 4
624 1 25.08 150.065 4.46
625 1 27.36 0 4
626 1 28.5 1.97454 4.46
627 1 30.78 1.97454 4
628 1 31.92 0 4.46
629 1 27.36 3.94908 4
630 1 28.5 5.92361 4.46
631 1 30.78 5.92361 4
632 1 31.92 3.94908 4.46
633 1 27.36 7.89815 4
634 1 28.5 9.87269 4.46
635 1 30.78 9.87269 4
636 1 31.92 7.89815 4.46
637 1 27.36 11.8472 4
638 1 28.5 13.8218 4.46
639 1 30.78 13.8218 4
640 1 31.92 11.8472 4.46
641 1 27.36 15.7963 4
642 1 28.5 17.7708 4.46
643 1 30.78 17.7708 4
644 1 31.92 15.7963 4.46
645 1 27.36 19.7454 4
646 1 28.5 21.7199 4.46
647 1 30.78 21.7199 4
648 1 31.92 19.7454 4.46
649 1 27.36 23.6945 4
650 1 28.5 25.669 4.46
651 1 30.78 25.669 4
652 1 31.92 23.6945 4.46
653 1 27.36 27.6435 4
654 1 28.5 29.6181 4.46
655 1 30.78 29.6181 4
656 1 31.92 27.6435 4.46
657 1 27.36 31.5926 4
658 1 28.5 33.5671 4.46
659 1 30.78 33.5671 4
660 1 31.92 31.5926 4.46
661 1 27.36 35.5417 4
662 1 28.5 37.5162 4.46
663 1 30.78 37.5162 4
664 1 31.92 35.5417 4.46
665 1 27.36 39.4908 4
666 1 28.5 41.4653 4.46
667 1 30.78 41.4653 4
668 1 31.92 39.4908 4.46
669 1 27.36 43.4398 4
670 1 28.5 45.4144 4.46
671 1 30.78 45.4144 4
672 1 31.92 43.4398 4.46
673 1 27.36 47.3889 4
674 1 28.5 49.3634 4.46
675 1 30.78 49.3634 4
676 1 31.92 47.3889 4.46
677 1 27.36 51.338 4
678 1 28.5 53.3125 4.46
679 1 30.78 53.3125 4
680 1 31.92 51.338 4.46
681 1 27.36 55.2871 4
682 1 28.5 57.2616 4.46
683 1 30.78 57.2616 4
684 1 31.92 55.2871 4.46
685 1 27.36 59.2361 4
686 1 28.5 61.2107 4.46
687 1 30.78 61.2107 4
688 1 31.92 59.2361 4.46
689 1 27.36 63.1852 4
690 1 28.5 65.1598 4.46
691 1 30.78 65.1598 4
692 1 31.92 63.1852 4.46
693 1 27.36 67.1343 4
694 1 28.5 69.1088 4.46
695 1 30.78 69.1088 4
696 1 31.92 67.1343 4.46
697 1 27.36 71.0834 4
698 1 28.5 73.0579 4.46
699 1 30.78 73.0579 4
700 1 31.92 71.0834 4.46
701 1 27.36 75.0324 4
702 1 28.5 77.007 4.46
703 1 30.78 77.007 4
704 1 31.92 75.0324 4.46
705 1 27.36 78.9815 4
706 1 28.5 80.9561 4.46
707 1 30.78 80.9561 4
708 1 31.92 78.9815 4.46
709 1 27.36 82.9306 4
710 1 28.5 84.9051 4.46
711 1 30.78 84.9051 4
712 1 31.92 82.9306 4.46
713 1 27.36 86.8797 4
714 1 28.5 88.8542 4.46
715 1 30.78 88.8542 4
716 1 31.92 86.8797 4.46
717 1 27.36 90.8287 4
718 1 28.5 92.8033 4.46
719 1 30.78 92.8033 4
720 1 31.92 90.8287 4.46
721 1 27.36 94.7778 4
722 1 28.5 96.7524 4.46
723 1 30.78 96.7524 4
724 1 31.92 94.7778 4.46
725 1 27.36 98.7269 4
726 1 28.5 100.701 4.46
727 1 30.78 100.701 4
728 1 31.92 98.7269 4.46
729 1 27.36 102.676 4
730 1 28.5 104.651 4.46
731 1 30.78 104.651 4
732 1 31.92 102.676 4.46
733 1 27.36 106.625 4
734 1 28.5 108.6 4.46
735 1 30.78 108.6 4
736 1 31.92 106.625 4.46
737 1 27.36 110.574 4
738 1 28.5 112.549 4.46
739 1 30.78 112.549 4
740 1 31.92 110.574 4.46
741 1 27.36 114.523 4
742 1 28.5 116.498 4.46
743 1 30.78 116.498 4
744 1 31.92 114.523 4.46
745 1 27.36 118.472 4
746 1 28.5 120.447 4.46
747 1 30.78 120.447 4
748 1 31.92 118.472 4.46
749 1 27.36 122.421 4
750 1 28.5 124.396 4.46
751 1 30.78 124.396 4
752 1 31.92 122.421 4.46
753 1 27.36 126.37 4
754 1 28.5 128.345 4.46
755 1 30.78 128.345 4
756 1 31.92 126.37 4.46
757 1 27.36 130.32 4
758 1 28.5 132.294 4.46
759 1 30.78 132.294 4
760 1 31.92 130.32 4.46
761 1 27.36 134.269 4
762 1 28.5 136.243 4.46
763 1 30.78 136.243 4
764 1 31.92 134.269 4.46
765 1 27.36 138.218 4
766 1 28.5 140.192 4.46
767 1 30.78 140.192 4
768 1 31.92 138.218 4.46
769 1 27.36 142.167 4
770 1 28.5 144.141 4.46
771 1 30.78 144.141 4
772 1 31.92 142.167 4.46
773 1 27.36 146.116 4
774 1 28.5 148.09 4.46
775 1 30.78 148.09 4
776 1 31.92 146.116 4.46
777 1 27.36 150.065 4
778 1 28.5 152.039 4.46
779 1 30.78 152.039 4
780 1 31.92 150.065 4.46
781 1 34.2 0 4
782 1 35.34 1.97454 4.46
783 1 37.62 1.97454 4
784 1 38.76 0 4.46
785 1 34.2 3.94908 4
786 1 35.34 5.92361 4.46
787 1 37.62 5.92361 4
788 1 38.76 3.94908 4.46
789 1 34.2 7.89815 4
790 1 35.34 9.87269 4.46
791 1 37.62 9.87269 4
792 1 38.76 7.89815 4.46
793 1 34.2 11.8472 4
794 1 35.34 13.8218 4.46
795 1 37.62 13.8218 4
796 1 38.76 11.8472 4.46
797 1 34.2 15.7963 4
798 1 35.34 17.7708 4.46
799 1 37.62 17.7708 4
800 1 38.76 15.7963 4.46
801 1 34.2 19.7454 4
802 1 35.34 21.7199 4.46
803 1 37.62 21.7199 4
804 1 38.76 19.7454 4.46
805 1 34.2 23.6945 4
806 1 35.34 25.669 4.46
807 1 37.62 25.669 4
808 1 38.76 23.6945 4.46
809 1 34.2 27.6435 4
810 1 35.34 29.6181 4.46
811 1 37.62 29.6181 4
812 1 38.76 27.6435 4.46
813 1 34.2 31.5926 4
814 1 35.34 33.5671 4.46
815 1 37.62 33.5671 4
816 1 38.76 31.5926 4.46
817 1 34.2 35.5417 4
818 1 35.34 37.5162 4.46
819 1 37.62 37.5162 4
820 1 38.76 35.5417 4.46
821 1 34.2 39.4908 4
822 1 35.34 41.4653 4.46
823 1 37.62 41.4653 4
824 1 38.76 39.4908 4.46
825 1 34.2 43.4398 4
826 1 35.34 45.4144 4.46
827 1 37.62 45.4144 4
828 1 38.76 43.4398 4.46
829 1 34.2 47.3889 4
830 1 35.34 49.3634 4.46
831 1 37.62 49.3634 4
832 1 38.76 47.3889 4.46
833 1 34.2 51.338 4
834 1 35.34 53.3125 4.46
835 1 37.62 53.3125 4
836 1 38.76 51.338 4.46
837 1 34.2 55.2871 4
838 1 35.34 57.2616 4.46
839 1 37.62 57.2616 4
840 1 38.76 55.2871 4.46
841 1 34.2 59.2361 4
842 1 35.34 61.2107 4.46
843 1 37.62 61.2107 4
844 1 38.76 59.2361 4.46
845 1 34.2 63.1852 4
846 1 35.34 65.1598 4.46
847 1 37.62 65.1598 4
848 1 38.76 63.1852 4.46
849 1 34.2 67.1343 4
850 1 35.34 69.1088 4.46
851 1 37.62 69.1088 4
852 1 38.76 67.1343 4.46
853 1 34.2 71.0834 4
854 1 35.34 73.0579 4.46
855 1 37.62 73.0579 4
856 1 38.76 71.0834 4.46
857 1 34.2 75.0324 4
858 1 35.34 77.007 4.46
859 1 37.62 77.007 4
860 1 38.76 75.0324 4.46
861 1 34.2 78.9815 4
862 1 35.34 80.9561 4.46
863 1 37.62 80.9561 4
864 1 38.76 78.9815 4.46
865 1 34.2 82.9306 4
866 1 35.34 84.9051 4.46
867 1 37.62 84.9051 4
868 1 38.76 82.9306 4.46
869 1 34.2 86.8797 4
870 1 35.34 88.8542 4.46
871 1 37.62 88.8542 4
872 1 38.76 86.8797 4.46
873 1 34.2 90.8287 4
874 1 35.34 92.8033 4.46
875 1 37.62 92.8033 4
876 1 38.76 90.8287 4.46
877 1 34.2 94.7778 4
878 1 35.34 96.7524 4.46
879 1 37.62 96.7524 4
880 1 38.76 94.7778 4.46
881 1 34.2 98.7269 4
882 1 35.34 100.701 4.46
883 1 37.62 100.701 4
884 1 38.76 98.7269 4.46
885 1 34.2 102.676 4
886 1 35.34 104.651 4.46
887 1 37.62 104.651 4
888 1 38.76 102.676 4.46
889 1 34.2 106.625 4
890 1 35.34 108.6 4.46
891 1 37.62 108.6 4
892 1 38.76 106.625 4.46
893 1 34.2 110.574 4
894 1 35.34 112.549 4.46
895 1 37.62 112.549 4
896 1 38.76 110.574 4.46
897 1 34.2 114.523 4
898 1 35.34 116.498 4.46
899 1 37.62 116.498 4
900 1 38.76 114.523 4.46
901 1 34.2 118.472 4
902 1 35.34 120.447 4.46
903 1 37.62 120.447 4
904 1 38.76 118.472 4.46
905 1 34.2 122.421 4
906 1 35.34 124.396 4.46
907 1 37.62 124.396 4
908 1 38.76 122.421 4.46
909 1 34.2 126.37 4
910 1 35.34 128.345 4.46
911 1 37.62 128.345 4
912 1 38.76 126.37 4.46
913 1 34.2 130.32 4
914 1 35.34 132.294 4.46
915 1 37.62 132.294 4
916 1 38.76 130.32 4.46
917 1 34.2 134.269 4
918 1 35.34 136.243 4.46
919 1 37.62 136.243 4
920 1 38.76 134.269 4.46
921 1 34.2 138.218 4
922 1 35.34 140.192 4.46
923 1 37.62 140.192 4
924 1 38.76 138.218 4.46
925 1 34.2 142.167 4
926 1 35.34 144.141 4.46
927 1 37.62 144.141 4
928 1 38.76 142.167 4.46
929 1 34.2 146.116 4
930 1 35.34 148.09 4.46
931 1 37.62 148.09 4
932 1 38.76 146.116 4.46
933 1 34.2 150.065 4
934 1 35.34 152.039 4.46
935 1 37.62 152.039 4
936 1 38.76 150.065 4.46
937 1 41.04 0 4
938 1 42.18 1.97454 4.46
939 1 44.46 1.97454 4
940 1 45.6 0 4.46
941 1 41.04 3.94908 4
942 1 42.18 5.92361 4.46
943 1 44.46 5.92361 4
944 1 45.6 3.94908 4.46
945 1 41.04 7.89815 4
946 1 42.18 9.87269 4.46
947 1 44.46 9.87269 4
948 1 45.6 7.89815 4.46
949 1 41.04 11.8472 4
950 1 42.18 13.8218 4.46
951 1 44.46 13.8218 4
952 1 45.6 11.8472 4.46
953 1 41.04 15.7963 4
954 1 42.18 17.7708 4.46
955 1 44.46 17.7708 4
956 1 45.6 15.7963 4.46
957 1 41.04 19.7454 4
958 1 42.18 21.7199 4.46
959 1 44.46 21.7199 4
960 1 45.6 19.7454 4.46
961 1 41.04 23.6945 4
962 1 42.18 25.669 4.46
963 1 44.46 25.669 4
964 1 45.6 23.6945 4.46
965 1 41.04 27.6435 4
966 1 42.18 29.6181 4.46
967 1 44.46 29.6181 4
968 1 45.6 27.6435 4.46
969 1 41.04 31.5926 4
970 1 42.18 33.5671 4.46
971 1 44.46 33.5671 4
972 1 45.6 31.5926 4.46
973 1 41.04 35.5417 4
974 1 42.18 37.5162 4.46
975 1 44.46 37.5162 4
976 1 45.6 35.5417 4.46
977 1 41.04 39.4908 4
978 1 42.18 41.4653 4.46
979 1 44.46 41.4653 4
980 1 45.6 39.4908 4.46
981 1 41.04 43.4398 4
982 1 42.18 45.4144 4.46
983 1 44.46 45.4144 4
984 1 45.6 43.4398 4.46
985 1 41.04 47.3889 4
986 1 42.18 49.3634 4.46
987 1 44.46 49.3634 4
988 1 45.6 47.3889 4.46
989 1 41.04 51.338 4
990 1 42.18 53.3125 4.46
991 1 44.46 53.3125 4
992 1 45.6 51.338 4.46
993 1 41.04 55.2871 4
994 1 42.18 57.2616 4.46
995 1 44.46 57.2616 4
996 1 45.6 55.2871 4.46
997 1 41.04 59.2361 4
998 1 42.18 61.2107 4.46
999 1 44.46 61.2107 4
1000 1 45.6 59.2361 4.46
1001 1 41.04 63.1852 4
1002 1 42.18 65.1598 4.46
1003 1 44.46 65.1598 4
1004 1 45.6 63.1852 4.46
1005 1 41.04 67.1343 4
1006 1 42.18 69.1088 4.46
1007 1 44.46 69.1088 4
1008 1 45.6 67.1343 4.46
1009 1 41.04 71.0834 4
1010 1 42.18 73.0579 4.46
1011 1 44.46 73.0579 4
1012 1 45.6 71.0834 4.46
1013 1 41.04 75.0324 4
1014 1 42.18 77.007 4.46
1015 1 44.46 77.007 4
1016 1 45.6 75.0324 4.46
1017 1 41.04 78.9815 4
1018 1 42.18 80.9561 4.46
1019 1 44.46 80.9561 4
1020 1 45.6 78.9815 4.46
1021 1 41.04 82.9306 4
1022 1 42.18 84.9051 4.46
1023 1 44.46 84.9051 4
1024 1 45.6 82.9306 4.46
1025 1 41.04 86.8797 4
1026 1 42.18 88.8542 4.46
1027 1 44.46 88.8542 4
1028 1 45.6 86.8797 4.46
1029 1 41.04 90.8287 4
1030 1 42.18 92.8033 4.46
1031 1 44.46 92.8033 4
1032 1 45.6 90.8287 4.46
1033 1 41.04 94.7778 4
1034 1 42.18 96.7524 4.46
1035 1 44.46 96.7524 4
1036 1 45.6 94.7778 4.46
1037 1 41.04 98.7269 4
1038 1 42.18 100.701 4.46
1039 1 44.46 100.701 4
1040 1 45.6 98.7269 4.46
1041 1 41.04 102.676 4
1042 1 42.18 104.651 4.46
1043 1 44.46 104.651 4
1044 1 45.6 102.676 4.46
1045 1 41.04 106.625 4
1046 1 42.18 108.6 4.46
1047 1 44.46 108.6 4
1048 1 45.6 106.625 4.46
1049 1 41.04 110.574 4
1050 1 42.18 112.549 4.46
1051 1 44.46 112.549 4
1052 1 45.6 110.574 4.46
1053 1 41.04 114.523 4
1054 1 42.18 116.498 4.46
1055 1 44.46 116.498 4
1056 1 45.6 114.523 4.46
1057 1 41.04 118.472 4
1058 1 42.18 120.447 4.46
1059 1 44.46 120.447 4
1060 1 45.6 118.472 4.46
1061 1 41.04 122.421 4
1062 1 42.18 124.396 4.46
1063 1 44.46 124.396 4
1064 1 45.6 122.421 4.46
1065 1 41.04 126.37 4
1066 1 42.18 128.345 4.46
1067 1 44.46 128.345 4
1068 1 45.6 126.37 4.46
1069 1 41.04 130.32 4
1070 1 42.18 132.294 4.46
1071 1 44.46 132.294 4
1072 1 45.6 130.32 4.46
1073 1 41.04 134.269 4
1074 1 42.18 136.243 4.46
1075 1 44.46 136.243 4
1076 1 45.6 134.269 4.46
1077 1 41.04 138.218 4
1078 1 42.18 140.192 4.46
1079 1 44.46 140.192 4
1080 1 45.6 138.218 4.46
1081 1 41.04 142.167 4
1082 1 42.18 144.141 4.46
1083 1 44.46 144.141 4
1084 1 45.6 142.167 4.46
1085 1 41.04 146.116 4
1086 1 42.18 148.09 4.46
1087 1 44.46 148.09 4
1088 1 45.6 146.116 4.46
1089 1 41.04 150.065 4
1090 1 42.18 152.039 4.46
1091 1 44.46 152.039 4
1092 1 45.6 150.065 4.46
1093 1 47.88 0 4
1094 1 49.02 1.97454 4.46
1095 1 51.3 1.97454 4
1096 1 52.44 0 4.46
1097 1 47.88 3.94908 4
1098 1 49.02 5.92361 4.46
1099 1 51.3 5.92361 4
1100 1 52.44 3.94908 4.46
1101 1 47.88 7.89815 4
1102 1 49.02 9.87269 4.46
1103 1 51.3 9.87269 4
1104 1 52.44 7.89815 4.46
1105 1 47.88 11.8472 4
1106 1 49.02 13.8218 4.46
1107 1 51.3 13.8218 4
1108 1 52.44 11.8472 4.46
1109 1 47.88 15.7963 4
1110 1 49.02 17.7708 4.46
1111 1 51.3 17.7708 4
1112 1 52.44 15.7963 4.46
1113 1 47.88 19.7454 4
1114 1 49.02 21.7199 4.46
1115 1 51.3 21.7199 4
1116 1 52.44 19.7454 4.46
1117 1 47.88 23.6945 4
1118 1 49.02 25.669 4.46
1119 1 51.3 25.669 4
1120 1 52.44 23.6945 4.46
1121 1 47.88 27.6435 4
1122 1 49.02 29.6181 4.46
1123 1 51.3 29.6181 4
1124 1 52.44 27.6435 4.46
1125 1 47.88 31.5926 4
1126 1 49.02 33.5671 4.46
1127 1 51.3 33.5671 4
1128 1 52.44 31.5926 4.46
1129 1 47.88 35.5417 4
1130 1 49.02 37.5162 4.46
1131 1 51.3 37.5162 4
1132 1 52.44 35.5417 4.46
1133 1 47.88 39.4908 4
1134 1 49.02 41.4653 4.46
1135 1 51.3 41.4653 4
1136 1 52.44 39.4908 4.46
1137 1 47.88 43.4398 4
1138 1 49.02 45.4144 4.46
1139 1 51.3 45.4144 4
1140 1 52.44 43.4398 4.46
1141 1 47.88 47.3889 4
1142 1 49.02 49.3634 4.46
1143 1 51.3 49.3634 4
1144 1 52.44 47.3889 4.46
1145 1 47.88 51.338 4
1146 1 49.02 53.3125 4.46
1147 1 51.3 53.3125 4
1148 1 52.44 51.338 4.46
1149 1 47.88 55.2871 4
1150 1 49.02 57.2616 4.46
1151 1 51.3 57.2616 4
1152 1 52.44 55.2871 4.46
1153 1 47.88 59.2361 4
1154 1 49.02 61.2107 4.46
1155 1 51.3 61.2107 4
1156 1 52.44 59.2361 4.46
1157 1 47.88 63.1852 4
1158 1 49.02 65.1598 4.46
1159 1 51.3 65.1598 4
1160 1 52.44 63.1852 4.46
1161 1 47.88 67.1343 4
1162 1 49.02 69.1088 4.46
1163 1 51.3 69.1088 4
1164 1 52.44 67.1343 4.46
1165 1 47.88 71.0834 4
1166 1 49.02 73.0579 4.46
1167 1 51.3 73.0579 4
1168 1 52.44 71.0834 4.46
1169 1 47.88 75.0324 4
1170 1 49.02 77.007 4.46
1171 1 51.3 77.007 4
1172 1 52.44 75.0324 4.46
1173 1 47.88 78.9815 4
1174 1 49.02 80.9561 4.46
1175 1 51.3 80.9561 4
1176 1 52.44 78.9815 4.46
1177 1 47.88 82.9306 4
1178 1 49.02 84.9051 4.46
1179 1 51.3 84.9051 4
1180 1 52.44 82.9306 4.46
1181 1 47.88 86.8797 4
1182 1 49.02 88.8542 4.46
1183 1 51.3 88.8542 4
1184 1 52.44 86.8797 4.46
1185 1 47.88 90.8287 4
1186 1 49.02 92.8033 4.46
1187 1 51.3 92.8033 4
1188 1 52.44 90.8287 4.46
1189 1 47.88 94.7778 4
1190 1 49.02 96.7524 4.46
1191 1 51.3 96.7524 4
1192 1 52.44 94.7778 4.46
1193 1 47.88 98.7269 4
1194 1 49.02 100.701 4.46
1195 1 51.3 100.701 4
1196 1 52.44 98.7269 4.46
1197 1 47.88 102.676 4
1198 1 49.02 104.651 4.46
1199 1 51.3 104.651 4
1200 1 52.44 102.676 4.46
1201 1 47.88 106.625 4
1202 1 49.02 108.6 4.46
1203 1 51.3 108.6 4
1204 1 52.44 106.625 4.46
1205 1 47.88 110.574 4
1206 1 49.02 112.549 4.46
1207 1 51.3 112.549 4
1208 1 52.44 110.574 4.46
1209 1 47.88 114.523 4
1210 1 49.02 116.498 4.46
1211 1 51.3 116.498 4
1212 1 52.44 114.523 4.46
1213 1 47.88 118.472 4
1214 1 49.02 120.447 4.46
1215 1 51.3 120.447 4
1216 1 52.44 118.472 4.46
1217 1 47.88 122.421 4
1218 1 49.02 124.396 4.46
1219 1 51.3 124.396 4
1220 1 52.44 122.421 4.46
1221 1 47.88 126.37 4
1222 1 49.02 128.345 4.46
1223 1 51.3 128.345 4
1224 1 52.44 126.37 4.46
1225 1 47.88 130.32 4
1226 1 49.02 132.294 4.46
1227 1 51.3 132.294 4
1228 1 52.44 130.32 4.46
1229 1 47.88 134.269 4
1230 1 49.02 136.243 4.46
1231 1 51.3 136.243 4
1232 1 52.44 134.269 4.46
1233 1 47.88 138.218 4
1234 1 49.02 140.192 4.46
1235 1 51.3 140.192 4
1236 1 52.44 138.218 4.46
1237 1 47.88 142.167 4
1238 1 49.02 144.141 4.46
1239 1 51.3 144.141 4
1240 1 52.44 142.167 4.46
1241 1 47.88 146.116 4
1242 1 49.02 148.09 4.46
1243 1 51.3 148.09 4
1244 1 52.44 146.116 4.46
1245 1 47.88 150.065 4
1246 1 49.02 152.039 4.46
1247 1 51.3 152.039 4
1248 1 52.44 150.065 4.46
1249 1 54.72 0 4
1250 1 55.86 1.97454 4.46
1251 1 58.14 1.97454 4
1252 1 59.28 0 4.46
1253 1 54.72 3.94908 4
1254 1 55.86 5.92361 4.46
1255 1 58.14 5.92361 4
1256 1 59.28 3.94908 4.46
1257 1 54.72 7.89815 4
1258 1 55.86 9.87269 4.46
1259 1 58.14 9.87269 4
1260 1 59.28 7.89815 4.46
1261 1 54.72 11.8472 4
1262 1 55.86 13.8218 4.46
1263 1 58.14 13.8218 4
1264 1 59.28 11.8472 4.46
1265 1 54.72 15.7963 4
1266 1 55.86 17.7708 4.46
1267 1 58.14 17.7708 4
1268 1 59.28 15.7963 4.46
1269 1 54.72 19.7454 4
1270 1 55.86 21.7199 4.46
1271 1 58.14 21.7199 4
1272 1 59.28 19.7454 4.46
1273 1 54.72 23.6945 4
1274 1 55.86 25.669 4.46
1275 1 58.14 25.669 4
1276 1 59.28 23.6945 4.46
1277 1 54.72 27.6435 4
1278 1 55.86 29.6181 4.46
1279 1 58.14 29.6181 4
1280 1 59.28 27.6435 4.46
1281 1 54.72 31.5926 4
1282 1 55.86 33.5671 4.46
1283 1 58.14 33.5671 4
1284 1 59.28 31.5926 4.46
1285 1 54.72 35.5417 4
1286 1 55.86 37.5162 4.46
1287 1 58.14 37.5162 4
1288 1 59.28 35.5417 4.46
1289 1 54.72 39.4908 4
1290 1 55.86 41.4653 4.46
1291 1 58.14 41.4653 4
1292 1 59.28 39.4908 4.46
1293 1 54.72 43.4398 4
1294 1 55.86 45.4144 4.46
1295 1 58.14 45.4144 4